/*--------------------------------*- C++ -*----------------------------------*\
| =========                 |                                                 |
| \\      /  F ield         | OpenFOAM: The Open Source CFD Toolbox           |
|  \\    /   O peration     | Version:  v1806                                 |
|   \\  /    A nd           | Web:      www.OpenFOAM.com                      |
|    \\/     M anipulation  |                                                 |
\*---------------------------------------------------------------------------*/
FoamFile
{
    version     2.0;
    format      ascii;
    class       volVectorField;
    location    "5";
    object      U;
}
// * * * * * * * * * * * * * * * * * * * * * * * * * * * * * * * * * * * * * //

dimensions      [0 1 -1 0 0 0 0];


internalField   nonuniform List<vector> 
768
(
(0.0588201 0.0326121 -2.00419e-21)
(0.0584501 0.0258743 1.00779e-20)
(0.0558313 0.019982 -6.01307e-20)
(0.0541482 0.017 5.54503e-20)
(0.0522287 0.0157431 4.04349e-21)
(0.0511122 0.0161793 4.65168e-20)
(0.0511568 0.017485 7.62485e-20)
(0.0525134 0.0189678 5.40359e-20)
(0.0549879 0.0200126 -2.37148e-20)
(0.0581354 0.0201816 0)
(0.061389 0.019161 0)
(0.0642104 0.0168031 3.61018e-21)
(0.0434621 0.0227963 0)
(0.041935 0.0168936 0)
(0.0394626 0.0121009 4.96213e-20)
(0.0373729 0.00918533 -1.65785e-20)
(0.0348128 0.0079228 -1.82482e-20)
(0.0330013 0.00831389 -4.97699e-21)
(0.0322482 0.00975091 -6.11359e-20)
(0.0326851 0.0116589 -3.12751e-20)
(0.03417 0.0135027 0)
(0.0364647 0.0148356 0)
(0.0392679 0.0152305 1.14704e-21)
(0.0422431 0.014395 -1.21541e-21)
(0.0295488 0.0145995 0)
(0.0291585 0.00956685 8.13129e-21)
(0.0274496 0.00625892 3.34575e-20)
(0.0252057 0.00403851 -5.65996e-20)
(0.0224837 0.00306934 -6.84415e-20)
(0.0202295 0.00340686 -2.18277e-20)
(0.0188118 0.00474948 2.92791e-20)
(0.0184436 0.00668994 3.19598e-20)
(0.0191324 0.00881555 -3.39665e-20)
(0.0208063 0.0106759 0)
(0.0232708 0.0118442 -1.06822e-21)
(0.0262457 0.0119918 9.94875e-22)
(0.0155366 0.00647297 8.41721e-21)
(0.0193596 0.00353087 2.50227e-20)
(0.0177363 0.00105225 -4.08992e-20)
(0.0156673 -0.00010285 7.02434e-20)
(0.0130881 -0.000564204 -9.53861e-21)
(0.0108103 -1.9736e-05 0)
(0.00917783 0.00135749 5.60763e-21)
(0.00846245 0.00331489 -6.1428e-22)
(0.00873783 0.00553315 2.49242e-20)
(0.0100022 0.00759836 0)
(0.0121342 0.00913975 8.40499e-21)
(0.0148849 0.0098394 9.21608e-22)
(0.0663457 0.0132787 2.24274e-21)
(0.0680059 0.00879577 -1.00004e-22)
(0.0694684 0.00330026 0)
(0.0707148 -0.00323123 0)
(0.0715197 -0.0106693 1.31032e-20)
(0.0715429 -0.0188089 2.71693e-20)
(0.070412 -0.0274001 5.43701e-20)
(0.0677251 -0.0362822 -1.50046e-20)
(0.0635669 -0.0450114 4.38543e-20)
(0.0578439 -0.0527338 1.1214e-20)
(0.0502445 -0.0578126 -4.92322e-20)
(0.0411977 -0.0597016 0)
(0.0451044 0.0123083 5.40166e-22)
(0.0477115 0.00908736 4.26132e-22)
(0.0499592 0.0047653 -3.5907e-21)
(0.0516912 -0.00057026 -3.9259e-21)
(0.0527751 -0.00670482 -1.41621e-20)
(0.0530172 -0.0134164 0)
(0.051957 -0.0204996 -4.16017e-20)
(0.0493155 -0.0276498 -1.45117e-20)
(0.0460275 -0.0344269 -2.93339e-20)
(0.0427947 -0.0406902 0)
(0.0384012 -0.0446947 3.7768e-20)
(0.0315215 -0.0448701 0)
(0.0293891 0.0109757 -6.79129e-22)
(0.0323881 0.00880557 -5.38218e-22)
(0.0349573 0.00553573 3.54564e-21)
(0.0368268 0.00130097 3.81004e-21)
(0.0378492 -0.0036481 -8.82589e-21)
(0.0380534 -0.00899571 5.02519e-21)
(0.0373017 -0.0145522 0)
(0.0349846 -0.0201449 1.45313e-20)
(0.0313512 -0.0254835 1.36334e-20)
(0.0284947 -0.0304623 1.04445e-20)
(0.0265525 -0.0337066 -4.58813e-20)
(0.0222014 -0.0323406 0)
(0.0179197 0.00952381 4.61719e-24)
(0.0208911 0.00815828 5.80656e-22)
(0.0234818 0.00579002 0)
(0.025386 0.00256658 -1.13747e-20)
(0.0263716 -0.00129604 0)
(0.0263886 -0.00548062 -8.82011e-21)
(0.0255348 -0.00974821 -1.10924e-20)
(0.0235442 -0.01406 6.14788e-20)
(0.0198226 -0.0181442 -6.74626e-22)
(0.0157877 -0.0215314 -1.17971e-20)
(0.0144609 -0.0230672 3.50176e-20)
(0.0132683 -0.0194783 -2.29761e-20)
(0.0320338 -0.0597806 0)
(0.0244422 -0.0589049 3.96697e-20)
(0.0191543 -0.0570702 0)
(0.0162052 -0.0547712 6.01281e-20)
(0.015309 -0.0526555 2.82307e-20)
(0.0159398 -0.0513335 -2.01448e-20)
(0.0174341 -0.0512181 -3.79918e-20)
(0.0191195 -0.0524383 1.3243e-20)
(0.0203829 -0.0548146 -2.16723e-20)
(0.0207373 -0.0579141 3.67427e-20)
(0.0198261 -0.0611876 6.71061e-21)
(0.0174666 -0.0640944 3.67311e-29)
(0.0232036 -0.0437313 -2.8571e-21)
(0.0160996 -0.0427573 9.60877e-21)
(0.0111243 -0.0404452 -8.61175e-21)
(0.00823965 -0.0375202 0)
(0.00728653 -0.0347391 -3.86962e-20)
(0.00792403 -0.0327268 4.86607e-20)
(0.00961196 -0.0318674 9.63932e-20)
(0.0117673 -0.0322372 0)
(0.0138489 -0.0337103 2.16052e-20)
(0.0153702 -0.0360636 -1.66691e-21)
(0.0158681 -0.0389973 1.1555e-21)
(0.0150184 -0.0421433 5.0957e-22)
(0.0149319 -0.0299394 0)
(0.00923021 -0.0300764 5.06436e-22)
(0.00538959 -0.0280686 4.14583e-20)
(0.00320369 -0.0252029 -5.70129e-20)
(0.00240163 -0.0222293 3.8108e-20)
(0.00295467 -0.0197658 2.06648e-20)
(0.0045338 -0.0182422 -5.52104e-20)
(0.00672186 -0.0178321 -3.9728e-20)
(0.00906293 -0.0185578 -9.6067e-21)
(0.011104 -0.0203397 -1.54981e-20)
(0.0123691 -0.0229762 0)
(0.012507 -0.0261408 -7.58921e-23)
(0.00709672 -0.0160439 8.7253e-21)
(0.00331382 -0.0202091 -1.48335e-20)
(0.000394334 -0.0181589 -8.86888e-20)
(-0.000754461 -0.0156528 7.08265e-20)
(-0.00114179 -0.0128171 4.78213e-20)
(-0.000439669 -0.010338 5.10673e-20)
(0.00112967 -0.00860349 1.85172e-20)
(0.0032965 -0.00784365 3.82068e-20)
(0.00570396 -0.00815654 0)
(0.00792877 -0.00953602 -2.8878e-21)
(0.009559 -0.0118284 2.86611e-21)
(0.0102611 -0.0147462 -6.98333e-23)
(0.013838 -0.0663311 -3.66402e-29)
(0.00920236 -0.068058 -1.01993e-22)
(0.00355043 -0.0695519 3.00744e-21)
(-0.00313066 -0.0707984 6.08117e-21)
(-0.0106983 -0.0715643 -1.27577e-20)
(-0.0189354 -0.0715092 1.97645e-20)
(-0.0275928 -0.0702659 0)
(-0.0364846 -0.0674556 3.24832e-20)
(-0.0451617 -0.0631765 0)
(-0.0527703 -0.0573745 6.72032e-20)
(-0.0577306 -0.0497867 -2.04517e-20)
(-0.0594983 -0.0408709 -1.49871e-20)
(0.0128072 -0.0451598 7.13779e-22)
(0.00941279 -0.0478613 4.18685e-22)
(0.00493049 -0.0501385 -4.16707e-21)
(-0.000533764 -0.0518469 -1.00038e-20)
(-0.00676141 -0.0528587 1.3397e-21)
(-0.0135301 -0.0529822 -3.09091e-20)
(-0.0206308 -0.0517758 -4.38316e-20)
(-0.0277405 -0.0489973 -4.76574e-20)
(-0.0344124 -0.0456036 -6.04676e-20)
(-0.040553 -0.0422861 -5.45411e-20)
(-0.0444778 -0.0379009 0)
(-0.0446276 -0.0311751 0)
(0.0113933 -0.0294416 -5.12202e-25)
(0.00909043 -0.0325376 -1.14431e-21)
(0.00569121 -0.0351384 4.75446e-21)
(0.00135091 -0.0369921 4.54113e-22)
(-0.00366811 -0.0379583 1.88686e-20)
(-0.00904731 -0.0380668 1.04463e-20)
(-0.0145992 -0.0371788 4.1227e-20)
(-0.0201515 -0.0347158 1.0206e-19)
(-0.0253887 -0.0309468 4.51129e-20)
(-0.0302385 -0.027946 -5.00176e-20)
(-0.0334264 -0.0259561 0)
(-0.0321129 -0.0217577 0)
(0.00987332 -0.0179191 3.48987e-24)
(0.008406 -0.0209829 5.81246e-22)
(0.00593997 -0.023608 -5.80588e-22)
(0.00263354 -0.025511 1.73293e-20)
(-0.00128504 -0.0264685 -2.24329e-20)
(-0.00549303 -0.0264328 -1.33542e-20)
(-0.00975455 -0.0254999 -1.18945e-21)
(-0.0140232 -0.0234199 9.322e-21)
(-0.0180396 -0.0196052 -5.17422e-20)
(-0.021343 -0.0154378 4.92812e-20)
(-0.0228746 -0.0139685 -3.81458e-20)
(-0.0194043 -0.0128122 0)
(0.00735074 -0.00212279 -8.26056e-21)
(0.0118899 -0.00247359 -2.45027e-20)
(0.010355 -0.00312019 3.88028e-20)
(0.00837859 -0.00318468 0)
(0.0059128 -0.00321339 7.57157e-20)
(0.00376374 -0.00246106 4.61505e-20)
(0.00217497 -0.00101208 -4.24492e-20)
(0.0013869 0.00097196 -2.24217e-20)
(0.00148828 0.00318402 0)
(0.0024923 0.00530611 -2.59614e-21)
(0.00431019 0.00701428 -6.61733e-21)
(0.00674283 0.00802879 -6.17558e-23)
(0.00646053 -0.00708291 -2.18183e-20)
(0.0082123 -0.00666774 8.20921e-21)
(0.00546518 -0.00595754 -4.60855e-20)
(0.0032552 -0.00520438 0)
(0.000795247 -0.00490279 0)
(-0.00124964 -0.00406171 -7.38845e-20)
(-0.00276653 -0.00262527 -4.19034e-20)
(-0.00355102 -0.000691735 3.6146e-20)
(-0.00353841 0.00146933 -6.68531e-21)
(-0.00271696 0.00357106 -2.2946e-20)
(-0.00116134 0.00533637 2.34655e-21)
(0.000964316 0.0065263 -5.72819e-23)
(0.0051878 -0.007002 2.11281e-20)
(0.00549389 -0.00860039 0)
(0.00215183 -0.0075701 0)
(-0.000200157 -0.0063814 0)
(-0.00257527 -0.00577879 0)
(-0.00450874 -0.00491979 -6.30712e-20)
(-0.00595805 -0.00358076 1.24515e-19)
(-0.00674455 -0.00178647 -3.08245e-20)
(-0.00680753 0.000246801 0)
(-0.0061401 0.00226229 1.98757e-20)
(-0.00480733 0.00400549 6.44256e-21)
(-0.00295529 0.00526996 1.94873e-21)
(0.00415093 -0.00603848 -2.68909e-20)
(0.00343112 -0.00894079 -3.8274e-20)
(-4.38122e-05 -0.00822036 4.33031e-20)
(-0.00245735 -0.00693052 -3.98797e-20)
(-0.00465343 -0.00610236 0)
(-0.00641728 -0.00522528 -9.19986e-21)
(-0.0077638 -0.00401036 -4.30475e-20)
(-0.00854209 -0.00240514 3.4833e-20)
(-0.0086761 -0.000558534 -5.41534e-21)
(-0.00815167 0.00130909 1.94134e-21)
(-0.00702318 0.00296463 -8.92638e-21)
(-0.00541807 0.00422508 -9.0013e-23)
(0.00333172 -0.00495062 -1.80112e-21)
(0.00206474 -0.00830012 2.93324e-20)
(-0.00135495 -0.00811123 -4.31555e-20)
(-0.00379449 -0.00698485 8.54876e-20)
(-0.00581392 -0.00606995 -4.07712e-20)
(-0.0073866 -0.005186 2.04139e-21)
(-0.00859726 -0.00408489 5.31694e-21)
(-0.00933587 -0.0026726 -5.09123e-20)
(-0.00951915 -0.00103517 4.95161e-21)
(-0.00911825 0.000644512 0)
(-0.00817272 0.00216624 -6.63868e-22)
(-0.00678901 0.00336587 -1.54853e-21)
(0.00258899 -0.00388536 2.72166e-20)
(0.0011714 -0.00715918 0)
(-0.00205953 -0.00746155 0)
(-0.00447 -0.00664665 -4.60854e-20)
(-0.00634781 -0.00579567 8.73985e-20)
(-0.00774907 -0.00495062 5.1312e-20)
(-0.00881692 -0.00395539 -5.16628e-21)
(-0.00948977 -0.00271897 3.90891e-20)
(-0.00969078 -0.00128887 -4.57336e-21)
(-0.00938164 0.000190769 1.65912e-21)
(-0.00858538 0.00155473 -2.27864e-21)
(-0.00738813 0.00265813 6.20686e-22)
(0.00194491 -0.00298346 5.71369e-20)
(0.000537753 -0.00588876 6.72e-20)
(-0.00242791 -0.00653096 -1.60415e-20)
(-0.00473549 -0.0060532 -2.61034e-20)
(-0.00648381 -0.00536183 -7.3728e-20)
(-0.00773993 -0.00460422 -9.43354e-21)
(-0.00867426 -0.00372028 9.44201e-21)
(-0.00926738 -0.00264232 0)
(-0.00945642 -0.00140465 0)
(-0.00920188 -0.000118487 -1.20995e-20)
(-0.00851401 0.00108085 -1.55277e-21)
(-0.0074614 0.00206801 1.11869e-29)
(0.00138886 -0.00225034 -5.56771e-20)
(2.13955e-05 -0.00469639 6.45061e-22)
(-0.00264775 -0.00552434 6.23365e-20)
(-0.00477737 -0.00533528 9.98672e-20)
(-0.00637637 -0.00483407 3.54358e-20)
(-0.00749551 -0.0041952 -8.9108e-21)
(-0.00830603 -0.00342886 1.32392e-20)
(-0.00881225 -0.00249666 -4.32322e-21)
(-0.00896573 -0.00143406 -3.01487e-20)
(-0.00873002 -0.000329894 2.76738e-20)
(-0.00810891 0.000705682 -2.02084e-21)
(-0.00715805 0.00156619 5.54635e-22)
(0.000904055 -0.00164594 4.90498e-20)
(-0.000434416 -0.00364377 -5.0177e-20)
(-0.00279043 -0.00454294 -6.08041e-20)
(-0.00467343 -0.0045705 -5.83994e-22)
(-0.00608622 -0.00424896 0)
(-0.00705938 -0.00373998 -3.39051e-20)
(-0.00774927 -0.00309313 -4.10522e-21)
(-0.00816366 -0.00230096 2.93559e-22)
(-0.00826452 -0.00140117 6.189e-20)
(-0.00801906 -0.000469806 -1.25851e-20)
(-0.00742945 0.000403571 0)
(-0.00654378 0.00113 0)
(0.00048355 -0.0011397 -1.09946e-19)
(-0.000815243 -0.00271751 0)
(-0.00282718 -0.00360591 -7.59299e-21)
(-0.00440613 -0.00377904 -1.16986e-19)
(-0.00559861 -0.00361257 -7.25235e-20)
(-0.00641811 -0.00323176 4.34936e-22)
(-0.00699139 -0.00270791 1.20646e-20)
(-0.00731383 -0.00205599 -3.43335e-20)
(-0.00735237 -0.00131537 -2.79949e-20)
(-0.00707885 -0.000552551 -1.05053e-20)
(-0.00649619 0.000158226 -1.33892e-21)
(-0.00564847 0.000744052 0)
(0.000123157 -0.000729575 5.38499e-20)
(-0.00107891 -0.00191014 0)
(-0.00269447 -0.00271514 0)
(-0.00394037 -0.0029757 6.06069e-20)
(-0.00490561 -0.00293744 6.28314e-20)
(-0.00557823 -0.00267847 3.18353e-20)
(-0.00603925 -0.00227278 3.1023e-20)
(-0.00625858 -0.0017588 5.55384e-20)
(-0.00620758 -0.00117401 3.5137e-21)
(-0.00586572 -0.000577083 1.28534e-20)
(-0.00524205 -3.08709e-05 -1.29389e-21)
(-0.00438244 0.000404281 0)
(-0.000182227 -0.000388317 5.22896e-20)
(-0.00109861 -0.00112165 0)
(-0.00213273 -0.00168968 0)
(-0.00293188 -0.00193205 -7.41277e-21)
(-0.00354469 -0.00195191 7.40998e-21)
(-0.00392925 -0.00179026 -7.54672e-21)
(-0.00411134 -0.00150737 7.44096e-21)
(-0.00405877 -0.00115285 -2.84419e-20)
(-0.00376312 -0.000766451 0)
(-0.00323703 -0.00039918 1.23242e-20)
(-0.00251611 -9.75247e-05 7.62982e-21)
(-0.00165986 0.000100357 -1.59507e-21)
(0.00950609 0.00818012 2.07698e-24)
(0.0122722 0.00741841 -3.26851e-22)
(0.0147462 0.00577233 0)
(0.0166342 0.00338765 7.92541e-21)
(0.0176883 0.000441611 1.77003e-20)
(0.017772 -0.0027729 9.41688e-21)
(0.0168787 -0.00597564 1.00637e-20)
(0.0150069 -0.00902566 -4.78357e-20)
(0.011654 -0.011629 0)
(0.0065366 -0.012621 -3.1214e-20)
(0.00195807 -0.0106861 2.52153e-20)
(0.00276972 -0.00731154 2.28366e-20)
(0.00343199 0.00698028 -6.8554e-25)
(0.00595082 0.00664473 0)
(0.0082614 0.00555154 4.76181e-21)
(0.0100987 0.00382446 0)
(0.0112273 0.00160665 -1.08654e-21)
(0.0115131 -0.000836222 3.25157e-20)
(0.0108701 -0.00323596 1.00238e-20)
(0.00930426 -0.00534652 -5.02249e-20)
(0.00667349 -0.00688881 0)
(0.00286921 -0.0070667 3.07802e-20)
(-0.00111143 -0.00416096 -2.48926e-20)
(0.000481883 0.000335507 0)
(-0.000774174 0.00591296 6.23764e-22)
(0.00149439 0.00587151 -1.5485e-22)
(0.00362475 0.0051814 -4.64604e-21)
(0.00537758 0.00394903 1.08458e-20)
(0.00654946 0.00229632 -6.9816e-21)
(0.00703179 0.000442773 -2.00752e-20)
(0.00672528 -0.00137299 -5.11272e-20)
(0.00563126 -0.00291082 4.82109e-20)
(0.00375099 -0.00389826 0)
(0.00126702 -0.00390948 -2.69953e-20)
(-0.00166618 -0.00201866 -8.69667e-21)
(-0.00136242 -0.000264026 0)
(-0.00350326 0.00496542 1.51415e-22)
(-0.00148342 0.00512552 -2.19308e-22)
(0.000457247 0.00472879 2.05038e-22)
(0.00209936 0.00384071 -6.44011e-22)
(0.00327639 0.00261612 -1.1463e-20)
(0.00390338 0.0012048 0)
(0.00389177 -0.00018777 4.11962e-20)
(0.00325345 -0.00136163 -8.28951e-21)
(0.00204028 -0.00209315 0)
(0.000530749 -0.00217762 6.82774e-20)
(-0.00125327 -0.00119424 0)
(-0.000946846 -0.000237194 0)
(-0.00511311 0.00413113 -1.74254e-21)
(-0.00331842 0.0044083 0)
(-0.00157207 0.00421634 1.82023e-21)
(-5.54983e-05 0.00358248 -8.02341e-21)
(0.00110236 0.00266746 -7.09752e-22)
(0.0018141 0.00157566 2.72653e-20)
(0.00201868 0.000490616 -7.59554e-21)
(0.00173269 -0.00044732 -2.33712e-20)
(0.00102073 -0.00105395 8.09652e-21)
(0.000136835 -0.0012559 -3.28368e-20)
(-0.000972768 -0.000864584 -1.53892e-20)
(-0.000931915 -0.000625575 7.50637e-21)
(-0.00591588 0.0034001 5.59951e-22)
(-0.00431791 0.00373086 0)
(-0.00274436 0.00365838 -2.99228e-21)
(-0.00134433 0.00321834 1.90988e-21)
(-0.000232408 0.00252382 -1.91439e-21)
(0.000523578 0.00166536 -3.00071e-20)
(0.000868063 0.000787695 2.55744e-20)
(0.000827567 1.585e-05 3.71528e-20)
(0.000451639 -0.000525605 0)
(-4.7847e-05 -0.000811793 7.52796e-21)
(-0.000749262 -0.000768048 -7.52261e-21)
(-0.000824769 -0.000790107 0)
(-0.00615151 0.00275428 -1.5983e-22)
(-0.00471414 0.00309378 5.96075e-22)
(-0.00328331 0.0030883 0)
(-0.00198623 0.00277139 0)
(-0.000923612 0.00222819 0)
(-0.000155116 0.00154286 -5.79683e-21)
(0.000272905 0.000811476 -1.9813e-20)
(0.000389606 0.000153015 -2.71613e-20)
(0.000216747 -0.000343512 7.22941e-21)
(-6.59548e-05 -0.000664513 -5.21665e-24)
(-0.00054752 -0.000795433 -6.4416e-20)
(-0.000704719 -0.000875828 -5.6008e-20)
(-0.0059692 0.00217464 0)
(-0.00465604 0.00248957 -3.39593e-22)
(-0.00333835 0.00251069 -8.51213e-23)
(-0.0021278 0.00226506 1.62468e-21)
(-0.00111431 0.00182098 1.15081e-20)
(-0.000352812 0.00124905 1.65223e-20)
(0.000118179 0.000635518 -2.39426e-20)
(0.000314741 5.78041e-05 5.82946e-20)
(0.000248873 -0.000392199 0)
(6.13842e-05 -0.000701557 0)
(-0.000323873 -0.000873018 4.873e-20)
(-0.000566645 -0.000893312 6.77196e-21)
(-0.00544166 0.00164371 0)
(-0.00422315 0.00190819 -6.93257e-23)
(-0.00299608 0.00192437 6.94172e-23)
(-0.00186082 0.00171104 0)
(-0.000898594 0.00132759 -2.94825e-20)
(-0.000161933 0.000833281 -2.43623e-20)
(0.000310904 0.000306153 2.18669e-20)
(0.000526838 -0.000196002 -2.54691e-20)
(0.000490286 -0.000584581 6.34513e-21)
(0.000312336 -0.000838724 6.69145e-21)
(-6.00071e-05 -0.000951275 -6.68821e-21)
(-0.000402916 -0.00084653 5.30829e-20)
(-0.00460667 0.00114923 0)
(-0.00345967 0.00134247 0)
(-0.00230689 0.00132863 -1.85205e-21)
(-0.00124089 0.0011183 1.44308e-21)
(-0.000336368 0.000769156 1.0711e-20)
(0.000353033 0.000330626 -2.91264e-21)
(0.0007842 -0.000128186 -1.06154e-20)
(0.0009634 -0.000549295 4.13675e-20)
(0.000892726 -0.000849784 -4.35629e-20)
(0.000658916 -0.0010092 1.2078e-22)
(0.000242031 -0.000998447 -6.47348e-21)
(-0.000210742 -0.000740883 0)
(-0.00335672 0.000682857 1.50228e-22)
(-0.00224875 0.000778145 9.00297e-22)
(-0.00115539 0.000705886 3.50871e-21)
(-0.000164275 0.000473315 0)
(0.000651894 0.000131807 -1.92094e-21)
(0.00123889 -0.000265081 1.9203e-21)
(0.0015585 -0.00065728 1.51856e-20)
(0.00162576 -0.000976625 -8.5697e-20)
(0.00144305 -0.00115623 4.86074e-20)
(0.00108691 -0.00117658 0)
(0.000573709 -0.00100329 0)
(4.55799e-06 -0.000590281 0)
(-0.000741725 0.00017239 9.27175e-22)
(0.000167382 0.000111832 -9.69767e-22)
(0.00098768 -5.59476e-05 -3.35983e-21)
(0.00165261 -0.000308586 1.31881e-21)
(0.0021201 -0.000603976 -3.1543e-21)
(0.00236404 -0.000891004 -1.02157e-20)
(0.00237713 -0.00112385 -9.69609e-21)
(0.00218453 -0.00125326 5.28818e-21)
(0.00180961 -0.00124375 -4.06456e-20)
(0.00131839 -0.00108804 -5.92195e-21)
(0.000757304 -0.000781913 0)
(0.000183717 -0.000345395 -4.8827e-20)
(-0.00180918 -0.00739734 -8.56657e-21)
(-0.002615 -0.0124909 -2.73883e-20)
(-0.00361096 -0.010634 3.91336e-20)
(-0.00368539 -0.00835589 6.26098e-20)
(-0.00368976 -0.00566427 -7.50514e-20)
(-0.00282252 -0.00333437 -8.425e-20)
(-0.00122376 -0.0016477 8.31193e-21)
(0.000923613 -0.000825155 1.59301e-20)
(0.00331078 -0.000956878 -7.63629e-21)
(0.00556875 -0.00205518 0)
(0.00735091 -0.00401192 0)
(0.00837272 -0.00658488 1.30727e-21)
(-0.00697603 -0.00659611 0)
(-0.00681773 -0.00865413 -2.5703e-21)
(-0.00633139 -0.00564175 0)
(-0.00559068 -0.00321287 -4.77574e-20)
(-0.00528149 -0.000564051 1.39402e-20)
(-0.00436428 0.00162594 -2.86237e-20)
(-0.00280867 0.00323165 7.92341e-20)
(-0.000739871 0.0040465 -7.30284e-21)
(0.00156126 0.00400304 0)
(0.00377923 0.00310431 2.0728e-20)
(0.00560927 0.00143452 0)
(0.00680736 -0.00081329 -1.40189e-21)
(-0.00698876 -0.00531258 0)
(-0.0087814 -0.00580567 3.64963e-20)
(-0.00786725 -0.00224751 -8.2814e-21)
(-0.00668689 0.000262522 0)
(-0.00607283 0.002794 -4.77216e-20)
(-0.00516516 0.00483994 -1.31563e-20)
(-0.00373634 0.00636081 -4.85261e-20)
(-0.00183357 0.00717457 3.73056e-20)
(0.000315338 0.00720941 -6.05874e-21)
(0.00242321 0.00647333 -3.86966e-20)
(0.00422365 0.00504574 -7.16409e-21)
(0.0054989 0.00309038 -5.40713e-23)
(-0.00609045 -0.00425842 2.70659e-20)
(-0.00913863 -0.00362704 0)
(-0.00847439 2.19941e-05 0)
(-0.00718555 0.00254716 -5.09521e-20)
(-0.00634295 0.00485986 5.69457e-20)
(-0.00542278 0.00671071 -1.19502e-20)
(-0.00413942 0.00811061 1.19748e-20)
(-0.00244713 0.00890991 -2.38868e-20)
(-0.000505929 0.00902049 -2.01723e-20)
(0.00143443 0.00843713 1.07372e-21)
(0.00313725 0.00722886 6.93577e-21)
(0.00440887 0.00553609 1.05412e-21)
(-0.00502029 -0.00341484 -2.63251e-20)
(-0.00850036 -0.00217413 0)
(-0.00834166 0.00138481 -9.08901e-21)
(-0.00720742 0.00390818 8.62335e-20)
(-0.0062751 0.00601223 0)
(-0.00535032 0.0076497 5.38872e-20)
(-0.00419253 0.00889896 -5.93008e-20)
(-0.00271029 0.00965207 4.63784e-20)
(-0.000999078 0.00981502 1.51802e-20)
(0.000740012 0.0093643 3.65141e-20)
(0.00230149 0.00835124 0)
(0.00351305 0.00689259 -3.16568e-21)
(-0.0039515 -0.0026522 -7.27773e-21)
(-0.00734144 -0.00122576 3.74658e-20)
(-0.00766755 0.002116 0)
(-0.00684238 0.00459417 -7.43209e-22)
(-0.00597381 0.0065371 0)
(-0.00509252 0.00798714 -1.18125e-20)
(-0.00404937 0.00908309 5.188e-20)
(-0.00275694 0.00976529 -3.51802e-20)
(-0.00126757 0.00994804 -2.17227e-20)
(0.000261803 0.00959631 -1.51939e-20)
(0.00165948 0.00874254 5.6623e-21)
(0.00277507 0.00748089 -9.35068e-22)
(-0.00303775 -0.00199199 0)
(-0.00603893 -0.000562313 -8.93267e-20)
(-0.00670557 0.00249244 -7.29166e-20)
(-0.00622208 0.00485813 -2.68801e-20)
(-0.00551675 0.00666116 0)
(-0.00472917 0.00795607 -4.84653e-20)
(-0.00380505 0.00891186 4.90231e-21)
(-0.00268118 0.00951099 3.3524e-22)
(-0.00139484 0.00968346 2.09303e-20)
(-6.75115e-05 0.00939228 0)
(0.00116013 0.00865477 -1.84245e-22)
(0.00215896 0.00754622 5.046e-23)
(-0.00229195 -0.00142203 5.71827e-20)
(-0.00481237 -3.06899e-05 1.25037e-19)
(-0.00566614 0.00271102 5.52947e-20)
(-0.00547788 0.00489263 6.68211e-20)
(-0.00496805 0.00654016 0)
(-0.00430515 0.00769193 -8.98497e-21)
(-0.00350579 0.00851954 1.33443e-20)
(-0.00253646 0.00903014 -3.19856e-22)
(-0.00143425 0.00916883 -4.02935e-21)
(-0.00029603 0.00890128 0)
(0.000763414 0.00823694 -5.18347e-21)
(0.00163453 0.007237 1.78359e-21)
(-0.0016778 -0.000926355 7.5049e-22)
(-0.00373015 0.000435831 -5.76166e-20)
(-0.00465527 0.00285098 0)
(-0.00468874 0.00478068 -8.88076e-21)
(-0.0043635 0.00623679 -2.53946e-22)
(-0.00383556 0.0072383 3.4162e-20)
(-0.00316341 0.00794281 -2.92222e-20)
(-0.00234197 0.00836082 3.59628e-20)
(-0.00141006 0.0084484 0)
(-0.000450723 0.00817514 1.22415e-20)
(0.000442739 0.00754764 0)
(0.00117885 0.00661844 -1.6758e-21)
(-0.00116283 -0.000497069 -5.51006e-20)
(-0.0027807 0.00082595 7.28253e-21)
(-0.00369321 0.00288782 -7.45069e-20)
(-0.00387594 0.00450726 -5.53206e-20)
(-0.00370889 0.0057382 5.66816e-20)
(-0.00331519 0.00658235 -3.33065e-20)
(-0.00277308 0.00716875 8.68232e-21)
(-0.00209766 0.00749478 -2.73706e-20)
(-0.00133162 0.00752157 -3.65318e-21)
(-0.000546129 0.00722337 -2.23755e-20)
(0.000181326 0.00660681 3.31847e-21)
(0.000775714 0.00571971 1.63483e-21)
(-0.000746356 -0.000127703 0)
(-0.00195732 0.00110004 0)
(-0.00278383 0.00275828 5.81815e-20)
(-0.00305543 0.00403906 0)
(-0.00301881 0.00503797 -7.12521e-20)
(-0.00275243 0.00573181 7.9469e-20)
(-0.00233277 0.00620394 1.98014e-20)
(-0.00180075 0.00642531 -2.57012e-20)
(-0.00119635 0.00636228 0)
(-0.000580921 0.00599653 9.57384e-23)
(-2.1357e-05 0.00534055 -1.35292e-20)
(0.000421123 0.00444365 0)
(-0.000399156 0.000186661 4.59684e-20)
(-0.00115338 0.00112857 6.74018e-20)
(-0.00173844 0.00219332 -6.87469e-21)
(-0.00198931 0.00301744 0)
(-0.00201139 0.00365261 7.63298e-21)
(-0.00184499 0.00404919 -7.67896e-20)
(-0.00155205 0.00423455 7.59778e-21)
(-0.00118547 0.00417638 3.19424e-20)
(-0.000786063 0.00386404 -3.38806e-21)
(-0.000406895 0.00331326 1.10229e-20)
(-9.73743e-05 0.00256314 1.74142e-20)
(0.000104328 0.00167639 0)
(0.00847655 -0.00946178 5.99165e-22)
(0.00763281 -0.0123142 -5.06169e-22)
(0.0059105 -0.0148266 5.05514e-22)
(0.00345743 -0.0167206 1.14466e-20)
(0.000466046 -0.0177664 1.58177e-20)
(-0.00277142 -0.0178288 -2.09724e-20)
(-0.00597713 -0.0169051 -1.19174e-20)
(-0.00901023 -0.0150018 -3.92765e-20)
(-0.011594 -0.0116186 9.82206e-20)
(-0.0126047 -0.00646511 0)
(-0.0107802 -0.00184285 3.77567e-20)
(-0.00748372 -0.00252623 0)
(0.00722634 -0.00337585 -1.56847e-24)
(0.00683139 -0.00597261 0)
(0.00567308 -0.00832615 0)
(0.00388792 -0.0101714 -8.74504e-22)
(0.00163283 -0.0112991 -1.54478e-20)
(-0.000835993 -0.0115771 -4.50485e-20)
(-0.0032448 -0.0109263 -3.04864e-20)
(-0.00535968 -0.00936233 0)
(-0.00691508 -0.00673118 -4.63676e-20)
(-0.00713709 -0.00290611 9.92476e-21)
(-0.00431368 0.00114221 1.87425e-20)
(9.2685e-05 -0.000274964 4.13942e-20)
(0.00611415 0.000825004 -8.23162e-24)
(0.0060323 -0.00151355 3.63343e-22)
(0.00528424 -0.00368661 4.61927e-21)
(0.00400245 -0.00545159 -1.64762e-20)
(0.00231665 -0.00662408 -1.95927e-20)
(0.000438598 -0.00710313 -2.75545e-21)
(-0.00139065 -0.00679503 5.78773e-20)
(-0.00294211 -0.00570814 2.9633e-20)
(-0.00395415 -0.00383421 -4.00656e-20)
(-0.00401237 -0.00133525 0)
(-0.00218681 0.00163475 -3.63501e-20)
(-0.000411326 0.00141978 1.25968e-21)
(0.00513139 0.00354625 -1.33483e-23)
(0.00525889 0.00146447 0)
(0.00481485 -0.000517149 -4.84821e-21)
(0.0038848 -0.0021749 3.28112e-21)
(0.00262904 -0.00335494 1.34145e-20)
(0.00119754 -0.00398078 6.50526e-20)
(-0.000212906 -0.00396769 -4.16188e-20)
(-0.00140272 -0.00333503 -4.77333e-20)
(-0.002157 -0.00212292 8.55434e-20)
(-0.0022809 -0.000590045 -3.64496e-20)
(-0.0013383 0.00124353 0)
(-0.000402111 0.0010452 -3.18438e-20)
(0.00426654 0.00514999 -1.56093e-21)
(0.0045177 0.00330039 0)
(0.00428734 0.00151625 0)
(0.00361775 -1.80718e-05 5.79011e-21)
(0.002675 -0.0011817 2.70245e-20)
(0.00156515 -0.00189313 -3.15356e-20)
(0.000460057 -0.00209625 3.26027e-20)
(-0.000491244 -0.00181517 -3.3604e-20)
(-0.00112045 -0.00109556 -7.08591e-20)
(-0.00134839 -0.000187262 9.08326e-22)
(-0.000982622 0.000962389 3.35573e-20)
(-0.000731457 0.000986084 0)
(0.00350922 0.0059495 5.01085e-22)
(0.00381898 0.00430232 8.33005e-23)
(0.00371577 0.00269373 0)
(0.00324574 0.0012752 0)
(0.00252674 0.00015506 -2.37819e-20)
(0.00165066 -0.000600473 -2.19637e-20)
(0.000757015 -0.000946619 0)
(-3.02711e-05 -0.000907355 3.26481e-20)
(-0.000588946 -0.000520079 2.54569e-20)
(-0.000892607 3.25523e-06 4.181e-20)
(-0.000865562 0.000742262 -6.49384e-20)
(-0.000873976 0.000866589 6.27737e-20)
(0.00284024 0.00618398 -9.52981e-22)
(0.00316309 0.00470208 1.08581e-22)
(0.00313319 0.00323848 -1.89917e-22)
(0.00279131 0.00192239 -1.98507e-21)
(0.00222757 0.000850191 4.63355e-21)
(0.00152438 8.03198e-05 2.14707e-20)
(0.000780745 -0.000350182 0)
(0.000107245 -0.000466139 0)
(-0.000402318 -0.000281703 3.0952e-20)
(-0.000734373 2.59248e-05 0)
(-0.000875435 0.000538393 2.36865e-20)
(-0.00094081 0.000733057 -5.32564e-20)
(0.0022403 0.00600152 7.01021e-24)
(0.00254267 0.0046477 -1.72984e-22)
(0.0025441 0.00329936 2.89231e-21)
(0.00227808 0.00206937 0)
(0.00181706 0.00104507 2.47636e-21)
(0.00122981 0.000280782 -8.45525e-21)
(0.000603874 -0.000193918 1.27398e-20)
(1.43141e-05 -0.0003894 -4.2068e-20)
(-0.000447161 -0.000310184 -2.28215e-20)
(-0.000763597 -9.98933e-05 0)
(-0.000936311 0.000309767 6.02912e-20)
(-0.000945058 0.000586582 5.95442e-20)
(0.00169179 0.00547434 3.86844e-24)
(0.0019473 0.00421864 1.68608e-22)
(0.0019468 0.00296295 -2.81878e-21)
(0.001717 0.00180753 1.73915e-21)
(0.00132052 0.000833261 5.99691e-22)
(0.000812827 9.19997e-05 -2.34511e-21)
(0.000276574 -0.000385673 0)
(-0.000238955 -0.000598685 5.34984e-22)
(-0.000635558 -0.000549746 -7.19352e-21)
(-0.000894523 -0.000351407 6.51651e-20)
(-0.00100295 4.13065e-05 -5.86561e-20)
(-0.000886232 0.000415251 -5.79472e-20)
(0.00118168 0.00463931 1.74346e-21)
(0.00136876 0.00345813 2.21954e-22)
(0.00134072 0.00227823 2.51624e-21)
(0.0011165 0.00119104 0)
(0.000758822 0.00027294 0)
(0.000309207 -0.000422658 -1.44503e-20)
(-0.000158914 -0.00085797 1.77995e-20)
(-0.000590822 -0.00103372 7.73782e-20)
(-0.000898287 -0.000950975 5.44498e-20)
(-0.0010578 -0.000700949 6.70842e-21)
(-0.00104154 -0.00026448 -7.05849e-21)
(-0.000769746 0.00021544 0)
(0.000700677 0.00338132 -8.50957e-22)
(0.000792153 0.00224186 -2.16753e-22)
(0.000707979 0.00112346 -2.45704e-21)
(0.000465778 0.000110596 1.58446e-21)
(0.000115357 -0.00071804 -1.58468e-21)
(-0.000289556 -0.00130954 1.93516e-20)
(-0.000690926 -0.00163073 -2.26092e-20)
(-0.00101685 -0.00169337 -4.99895e-20)
(-0.00120012 -0.00149914 -5.30196e-20)
(-0.00121679 -0.00112946 -5.46274e-20)
(-0.00103643 -0.000598095 6.20522e-20)
(-0.000608779 -6.58789e-06 -6.88901e-21)
(0.000175535 0.000729904 0)
(0.000111898 -0.000200626 4.68364e-22)
(-6.36543e-05 -0.00103662 0)
(-0.000321804 -0.00171457 -9.73187e-21)
(-0.000624691 -0.00218615 -1.44906e-20)
(-0.000916102 -0.00242889 0)
(-0.00115342 -0.00243878 5.67558e-21)
(-0.00128438 -0.00223891 -1.18351e-20)
(-0.00127375 -0.00185322 -2.96365e-22)
(-0.00111339 -0.00135055 6.45974e-21)
(-0.000800455 -0.000776633 -1.06526e-19)
(-0.00035373 -0.000188703 0)
)
;

boundaryField
{
    rotor
    {
        type            movingWallVelocity;
        value           nonuniform 0();
    }
    stator
    {
        type            movingWallVelocity;
        value           nonuniform List<vector> 
96
(
(-7.49891e-17 -7.0235e-17 -1.38778e-16)
(-1.32682e-15 -1.08889e-15 0)
(1.0513e-15 7.53354e-16 -1.38778e-16)
(0 0 0)
(0 0 0)
(8.3471e-16 3.78202e-16 0)
(0 0 0)
(-5.08335e-16 -1.54202e-16 -1.38778e-16)
(4.91039e-16 1.14494e-16 0)
(0 0 0)
(-2.16594e-16 -2.13326e-17 1.38778e-16)
(1.38629e-16 4.53825e-18 1.38778e-16)
(-3.2974e-18 1.07946e-19 -1.38778e-16)
(0 0 0)
(-3.56869e-16 5.89194e-17 -1.38778e-16)
(5.26488e-16 -1.2276e-16 -1.38778e-16)
(5.08335e-16 -1.54202e-16 0)
(9.72466e-16 -3.6601e-16 -2.77556e-16)
(8.3471e-16 -3.78202e-16 0)
(8.63515e-16 -4.61558e-16 -1.38778e-16)
(-9.95729e-16 6.19184e-16 -1.38778e-16)
(0 0 0)
(-2.17778e-15 1.78726e-15 -2.77556e-16)
(-1.10785e-15 1.03761e-15 -1.38778e-16)
(1.03761e-15 -1.10785e-15 2.09774e-32)
(8.93629e-16 -1.08889e-15 -1.38778e-16)
(-5.25652e-16 7.33546e-16 -1.38778e-16)
(1.2132e-16 -1.95098e-16 -1.38778e-16)
(-4.61558e-16 8.63515e-16 0)
(4.17355e-16 -9.21122e-16 0)
(3.6601e-16 -9.72466e-16 0)
(0 0 -1.38778e-16)
(0 0 0)
(0 0 0)
(0 0 0)
(1.07946e-19 -3.2974e-18 -1.38778e-16)
(0 0 0)
(0 0 0)
(-3.0298e-17 -1.83512e-16 0)
(-1.2276e-16 -5.26488e-16 -1.38778e-16)
(0 0 0)
(2.75513e-16 7.32021e-16 0)
(3.78202e-16 8.3471e-16 0)
(4.93416e-16 9.23117e-16 0)
(4.97864e-16 8.00631e-16 1.38778e-16)
(-5.25652e-16 -7.33546e-16 0)
(8.93629e-16 1.08889e-15 2.22175e-32)
(0 0 -1.38778e-16)
(0 0 0)
(-5.55112e-16 5.55112e-16 0)
(-1.11022e-15 1.11022e-15 0)
(0 0 0)
(-5.55112e-16 5.55112e-16 0)
(5.55112e-16 -5.55112e-16 -1.38778e-16)
(-1.11022e-15 1.11022e-15 0)
(-1.11022e-15 1.11022e-15 0)
(0 0 0)
(0 0 -1.38778e-16)
(0 0 0)
(0 0 0)
(0 0 0)
(5.55112e-16 5.55112e-16 0)
(-5.55112e-16 -5.55112e-16 -1.38778e-16)
(5.55112e-16 5.55112e-16 0)
(0 0 -1.38778e-16)
(5.55112e-16 5.55112e-16 0)
(5.55112e-16 5.55112e-16 0)
(0 0 0)
(0 0 -1.38778e-16)
(0 0 -1.38778e-16)
(0 0 0)
(0 0 0)
(0 0 0)
(5.55112e-16 5.55112e-16 -1.38778e-16)