/*--------------------------------*- C++ -*----------------------------------*\
| =========                 |                                                 |
| \\      /  F ield         | OpenFOAM: The Open Source CFD Toolbox           |
|  \\    /   O peration     | Version:  v1806                                 |
|   \\  /    A nd           | Web:      www.OpenFOAM.com                      |
|    \\/     M anipulation  |                                                 |
\*---------------------------------------------------------------------------*/
FoamFile
{
    version     2.0;
    format      ascii;
    class       surfaceScalarField;
    location    "3";
    object      meshPhi;
}
// * * * * * * * * * * * * * * * * * * * * * * * * * * * * * * * * * * * * * //

dimensions      [0 3 -1 0 0 0 0];
oriented        oriented;


internalField   nonuniform List<scalar> 
1460
(
-3.33727e-06
-4.201e-15
-3.33727e-06
2.38029e-15
-3.33727e-06
1.62742e-15
-3.33727e-06
-4.3502e-15
-3.33727e-06
9.27542e-15
-3.33727e-06
1.37841e-15
-3.33727e-06
-5.95111e-15
-3.33727e-06
-1.28956e-15
-3.33727e-06
6.47261e-15
-3.33727e-06
-1.18767e-15
-3.33727e-06
-7.84804e-16
-6.76266e-15
-3.33727e-06
-3.72989e-06
-1.69253e-15
-3.72989e-06
-5.79098e-15
-3.72989e-06
5.70363e-15
-3.72989e-06
2.91272e-15
-3.72989e-06
-1.56387e-15
-3.72989e-06
4.81718e-15
-3.72989e-06
-1.2765e-14
-3.72989e-06
7.85589e-15
-3.72989e-06
3.24714e-15
-3.72989e-06
-1.42605e-15
-3.72989e-06
-4.04111e-15
3.48986e-15
-3.72989e-06
-4.12251e-06
1.411e-15
-4.12251e-06
1.47812e-15
-4.12251e-06
-6.9056e-15
-4.12251e-06
1.20619e-14
-4.12251e-06
-1.53325e-14
-4.12251e-06
1.01294e-14
-4.12251e-06
8.99887e-16
-4.12251e-06
-3.51125e-15
-4.12251e-06
-7.67276e-16
-4.12251e-06
-1.68572e-15
-4.12251e-06
3.45915e-15
4.55277e-15
-4.12251e-06
-4.51513e-06
5.10958e-15
-4.51513e-06
-8.5104e-15
-4.51513e-06
-2.85894e-15
-4.51513e-06
4.25031e-15
-4.51513e-06
4.47323e-15
-4.51513e-06
-2.24683e-15
-4.51513e-06
-7.23499e-15
-4.51513e-06
-1.27334e-15
-4.51513e-06
3.85228e-15
-4.51513e-06
-1.96667e-15
-4.51513e-06
-2.93173e-17
4.84539e-15
-4.51513e-06
-4.90775e-06
9.40319e-15
-4.90775e-06
5.55136e-17
-4.90775e-06
-1.86731e-14
-4.90775e-06
1.50729e-14
-4.90775e-06
-1.12411e-14
-4.90775e-06
2.49347e-15
-4.90775e-06
1.06013e-14
-4.90775e-06
-1.57418e-14
-4.90775e-06
-9.5474e-16
-4.90775e-06
-2.26889e-15
-4.90775e-06
9.30978e-15
6.0929e-15
-4.90775e-06
-5.30037e-06
-7.7916e-15
-5.30037e-06
1.06202e-14
-5.30037e-06
6.62137e-15
-5.30037e-06
-1.57246e-14
-5.30037e-06
1.12135e-14
-5.30037e-06
-1.14145e-14
-5.30037e-06
1.83071e-15
-5.30037e-06
-2.97599e-15
-5.30037e-06
5.66446e-15
-5.30037e-06
2.63566e-15
-5.30037e-06
2.64275e-15
-8.07676e-15
-5.30037e-06
-5.69299e-06
-3.8852e-15
-5.69299e-06
-1.2748e-15
-5.69299e-06
1.24778e-14
-5.69299e-06
-4.1592e-15
-5.69299e-06
-1.09953e-15
-5.69299e-06
9.162e-15
-5.69299e-06
1.47349e-15
-5.69299e-06
-1.97604e-14
-5.69299e-06
1.97392e-14
-5.69299e-06
-2.58211e-15
-5.69299e-06
-1.62629e-14
7.85217e-15
-5.69299e-06
-6.08561e-06
6.16148e-16
-6.08561e-06
1.00557e-14
-6.08561e-06
-5.37042e-15
-6.08561e-06
-1.8265e-14
-6.08561e-06
3.63472e-15
-6.08561e-06
1.74529e-14
-6.08561e-06
-9.38386e-15
-6.08561e-06
-5.10448e-15
-6.08561e-06
1.47437e-14
-6.08561e-06
-2.9245e-15
-6.08561e-06
-5.84979e-15
-8.35385e-15
-6.08561e-06
-6.47823e-06
5.71258e-15
-6.47823e-06
-3.65653e-15
-6.47823e-06
3.95187e-16
-6.47823e-06
-7.09911e-15
-6.47823e-06
7.77177e-15
-6.47823e-06
1.42243e-15
-6.47823e-06
-2.16107e-14
-6.47823e-06
1.15482e-14
-6.47823e-06
8.95927e-15
-6.47823e-06
-3.28823e-15
-6.47823e-06
6.00043e-15
-7.77265e-15
-6.47823e-06
-6.87085e-06
1.14041e-14
-6.87085e-06
-1.90559e-14
-6.87085e-06
7.43014e-15
-6.87085e-06
1.22797e-14
-6.87085e-06
-2.1716e-14
-6.87085e-06
1.01462e-14
-6.87085e-06
2.64943e-15
-6.87085e-06
-7.65881e-15
-6.87085e-06
2.38594e-15
-6.87085e-06
-3.67322e-15
-6.87085e-06
6.49026e-16
-8.41176e-15
-6.87085e-06
-7.26347e-06
-1.20846e-14
-7.26347e-06
2.32166e-14
-7.26347e-06
-1.49219e-14
-7.26347e-06
-2.10503e-15
-7.26347e-06
1.98612e-14
-7.26347e-06
-1.80171e-14
-7.26347e-06
-1.02131e-14
-7.26347e-06
1.08841e-14
-7.26347e-06
-4.97639e-15
-7.26347e-06
1.95935e-14
-7.26347e-06
-9.33491e-15
1.34535e-14
-7.26347e-06
-7.65609e-06
-6.77014e-15
-7.65609e-06
7.97702e-15
-7.65609e-06
-8.32639e-15
-7.65609e-06
1.16509e-14
-7.65609e-06
-4.23626e-15
-7.65609e-06
-9.36529e-15
-7.6561e-06
1.76174e-14
-7.65609e-06
-2.63438e-14
-7.65609e-06
2.5772e-15
-7.65609e-06
2.04119e-14
-7.65609e-06
-1.61644e-14
-7.65609e-06
1.39595e-14
-3.33727e-06
2.84061e-15
-3.33727e-06
-3.12044e-15
-3.33727e-06
-2.68405e-15
-3.33727e-06
1.94645e-15
-3.33727e-06
2.34643e-15
-3.33727e-06
2.07046e-15
-3.33727e-06
-4.32425e-15
-3.33727e-06
3.88398e-16
-3.33727e-06
9.02919e-16
-3.33727e-06
8.58504e-15
-3.33727e-06
-6.06218e-15
5.03279e-16
-3.72989e-06
2.50723e-15
-3.72989e-06
-1.09246e-15
-3.72989e-06
-3.71121e-15
-3.72989e-06
5.23466e-15
-3.72989e-06
-1.24502e-14
-3.72989e-06
8.77333e-15
-3.72989e-06
5.89149e-15
-3.72989e-06
-2.05197e-15
-3.72989e-06
-7.54982e-15
-3.72989e-06
5.23796e-15
-3.72989e-06
1.3936e-15
-2.92963e-15
-4.12251e-06
2.04404e-15
-4.12251e-06
-9.10608e-15
-4.12251e-06
-3.96528e-15
-4.12251e-06
1.00972e-14
-4.12251e-06
-1.54248e-15
-4.12251e-06
-5.95179e-15
-4.12251e-06
5.08766e-15
-4.12251e-06
-6.31962e-15
-4.12251e-06
-5.794e-16
-4.12251e-06
1.25617e-15
-4.12251e-06
1.01368e-14
-6.94731e-15
-4.51513e-06
2.35112e-15
-4.51513e-06
5.34161e-15
-4.51513e-06
-5.20048e-15
-4.51513e-06
5.27862e-15
-4.51513e-06
-5.32744e-15
-4.51513e-06
6.00514e-16
-4.51513e-06
-3.78719e-15
-4.51513e-06
7.48348e-15
-4.51513e-06
-1.0408e-14
-4.51513e-06
-3.54481e-15
-4.51513e-06
1.63885e-15
7.16319e-15
-4.90775e-06
-1.36464e-14
-4.90775e-06
1.1795e-14
-4.90775e-06
-5.49552e-15
-4.90775e-06
-6.83444e-15
-4.90775e-06
7.96114e-15
-4.90775e-06
5.22095e-16
-4.90775e-06
-3.12401e-15
-4.90775e-06
1.2094e-15
-4.90775e-06
-2.67373e-15
-4.90775e-06
1.08101e-14
-4.90775e-06
-7.89803e-15
3.22465e-15
-5.30037e-06
-5.78143e-17
-5.30037e-06
2.64216e-15
-5.30037e-06
6.4459e-15
-5.30037e-06
-3.05948e-15
-5.30037e-06
-6.67202e-15
-5.30037e-06
8.83785e-15
-5.30037e-06
2.32157e-15
-5.30037e-06
1.49689e-15
-5.30037e-06
-1.47136e-14
-5.30037e-06
6.33621e-15
-5.30037e-06
2.44478e-15
-1.26785e-15
-5.69299e-06
-1.03548e-15
-5.69299e-06
6.39292e-15
-5.69299e-06
-7.27478e-15
-5.69299e-06
2.63899e-15
-5.69299e-06
9.4233e-15
-5.69299e-06
-1.18069e-14
-5.69299e-06
2.85959e-15
-5.69299e-06
-5.59788e-15
-5.69299e-06
-5.83962e-15
-5.69299e-06
3.37355e-16
-5.69299e-06
1.46594e-14
-6.43759e-15
-6.08561e-06
-3.26695e-15
-6.08561e-06
1.42139e-14
-6.08561e-06
6.37072e-15
-6.08561e-06
-4.83387e-15
-6.08561e-06
-5.9218e-15
-6.08561e-06
-1.6385e-15
-6.08561e-06
3.44717e-15
-6.08561e-06
8.66757e-15
-6.08561e-06
-1.79627e-14
-6.08561e-06
1.8719e-14
-6.08561e-06
3.40292e-15
-1.24489e-14
-6.47823e-06
-4.57449e-15
-6.47823e-06
1.91392e-14
-6.47823e-06
-9.30296e-15
-6.47823e-06
1.56997e-15
-6.47823e-06
-1.14553e-14
-6.47823e-06
8.30803e-15
-6.47823e-06
-1.47144e-14
-6.47823e-06
1.17022e-14
-6.47823e-06
-9.91019e-15
-6.47823e-06
1.29258e-14
-6.47823e-06
-9.72861e-15
7.65768e-15
-6.87085e-06
1.39771e-14
-6.87085e-06
-1.50964e-14
-6.87085e-06
2.84736e-14
-6.87085e-06
-1.72896e-14
-6.87085e-06
-7.24921e-15
-6.87085e-06
8.61887e-15
-6.87085e-06
1.16351e-14
-6.87085e-06
-8.35976e-16
-6.87085e-06
-2.07671e-14
-6.87085e-06
5.94438e-15
-6.87085e-06
4.33195e-15
1.82825e-15
-7.26347e-06
-3.00132e-14
-7.26347e-06
1.10111e-14
-7.26347e-06
-1.27176e-14
-7.26347e-06
1.40551e-14
-7.26347e-06
1.33391e-14
-7.26347e-06
-6.433e-15
-7.26347e-06
1.33387e-15
-7.26347e-06
-7.68763e-15
-7.26347e-06
-1.16662e-14
-7.26347e-06
2.80761e-14
-7.26347e-06
-1.01501e-14
-4.50382e-15
-7.65609e-06
-1.06809e-14
-7.65609e-06
-2.78101e-15
-7.65609e-06
4.27613e-15
-7.65609e-06
5.23384e-15
-7.65609e-06
7.96663e-15
-7.65609e-06
-6.96927e-15
-7.65609e-06
-8.19599e-15
-7.6561e-06
2.518e-14
-7.65609e-06
-3.18251e-14
-7.65609e-06
2.13618e-14
-7.65609e-06
4.95897e-15
-1.15131e-14
-3.33727e-06
6.20536e-15
-3.33727e-06
-1.39225e-15
-3.33727e-06
-1.89778e-15
-3.33727e-06
-8.0732e-15
-3.33727e-06
6.00939e-15
-3.33727e-06
-1.69593e-15
-3.33727e-06
3.85184e-15
-3.33727e-06
-7.92499e-15
-3.33727e-06
1.02066e-14
-3.33727e-06
-4.52065e-15
-3.33727e-06
6.52349e-15
-1.06847e-14
-3.33727e-06
-3.72989e-06
-6.31468e-15
-3.72989e-06
5.17712e-15
-3.72989e-06
1.27976e-15
-3.72989e-06
-1.31792e-15
-3.72989e-06
-6.091e-15
-3.72989e-06
9.2032e-16
-3.72989e-06
-1.64625e-15
-3.72989e-06
3.2616e-15
-3.72989e-06
-1.32913e-15
-3.72989e-06
6.49476e-15
-3.72989e-06
1.18023e-15
-8.6795e-16
-3.72989e-06
-4.12251e-06
-4.1253e-15
-4.12251e-06
-4.03448e-15
-4.12251e-06
4.90948e-15
-4.12251e-06
6.96782e-15
-4.12251e-06
-4.38653e-15
-4.12251e-06
2.37712e-15
-4.12251e-06
-5.18171e-15
-4.12251e-06
5.39889e-15
-4.12251e-06
2.23953e-15
-4.12251e-06
-7.33671e-15
-4.12251e-06
-2.18777e-15
-1.06589e-15
-4.12251e-06
-4.51513e-06
-1.54631e-15
-4.51513e-06
3.79274e-15
-4.51513e-06
-9.50866e-15
-4.51513e-06
-1.90735e-15
-4.51513e-06
1.643e-14
-4.51513e-06
-8.28082e-15
-4.51513e-06
3.0328e-15
-4.51513e-06
9.67448e-16
-4.51513e-06
-2.29047e-15
-4.51513e-06
6.81997e-15
-4.51513e-06
-6.97194e-15
-2.12709e-15
-4.51513e-06
-4.90775e-06
1.52498e-15
-4.90775e-06
-7.52242e-15
-4.90775e-06
1.41278e-14
-4.90775e-06
-1.21423e-14
-4.90775e-06
4.4819e-15
-4.90775e-06
-1.25126e-14
-4.90775e-06
2.19709e-15
-4.90775e-06
3.81828e-15
-4.90775e-06
2.59875e-15
-4.90775e-06
7.24996e-15
-4.90775e-06
1.7886e-15
-1.46064e-15
-4.90775e-06
-5.30037e-06
5.23245e-15
-5.30037e-06
1.31473e-15
-5.30037e-06
-2.12727e-15
-5.30037e-06
-2.36306e-15
-5.30037e-06
2.11732e-15
-5.30037e-06
-1.94386e-16
-5.30037e-06
-7.81382e-15
-5.30037e-06
-1.63062e-15
-5.30037e-06
3.34224e-15
-5.30037e-06
-1.17921e-14
-5.30037e-06
1.08741e-14
-1.71448e-15
-5.30037e-06
-5.69299e-06
9.29879e-15
-5.69299e-06
-1.17045e-14
-5.69299e-06
2.4959e-15
-5.69299e-06
8.33688e-15
-5.69299e-06
-1.47595e-14
-5.69299e-06
6.99178e-15
-5.69299e-06
1.29041e-14
-5.69299e-06
-9.69648e-15
-5.69299e-06
-1.09585e-14
-5.69299e-06
5.89513e-15
-5.69299e-06
5.91919e-15
-3.04231e-15
-5.69299e-06
-6.08561e-06
-1.10522e-14
-6.08561e-06
2.33501e-14
-6.08561e-06
-1.7157e-14
-6.08561e-06
-5.08618e-15
-6.08561e-06
1.54597e-14
-6.08561e-06
-1.82721e-14
-6.08561e-06
1.24248e-14
-6.08561e-06
5.63048e-15
-6.08561e-06
2.89237e-15
-6.08561e-06
-1.47751e-14
-6.08561e-06
1.78111e-14
-1.99746e-14
-6.08561e-06
-6.47823e-06
-7.5581e-15
-6.47823e-06
9.59938e-15
-6.47823e-06
-1.19481e-14
-6.47823e-06
8.46597e-15
-6.47823e-06
-4.94548e-15
-6.47823e-06
1.34118e-14
-6.47823e-06
8.39926e-16
-6.47823e-06
-1.43399e-14
-6.47823e-06
9.7163e-15
-6.47823e-06
5.30166e-15
-6.47823e-06
-7.64427e-15
-2.51645e-15
-6.47823e-06
-6.87085e-06
-3.57164e-15
-6.87085e-06
-5.57177e-15
-6.87085e-06
2.08047e-14
-6.87085e-06
-3.52411e-15
-6.87085e-06
-1.09651e-15
-6.87085e-06
-1.47455e-14
-6.87085e-06
2.47357e-14
-6.87085e-06
-2.25668e-14
-6.87085e-06
1.09868e-14
-6.87085e-06
-1.95862e-14
-6.87085e-06
3.41046e-15
1.71425e-14
-6.87085e-06
-7.26347e-06
1.10227e-15
-7.26347e-06
6.89734e-15
-7.26347e-06
-1.57495e-15
-7.26347e-06
-1.64583e-14
-7.26347e-06
-5.81219e-15
-7.26347e-06
3.07146e-14
-7.26347e-06
-1.44676e-14
-7.26347e-06
6.06972e-15
-7.26347e-06
-6.81954e-15
-7.26347e-06
2.79652e-15
-7.26347e-06
-3.66006e-15
1.65681e-14
-7.26347e-06
-7.65609e-06
6.08365e-15
-7.65609e-06
-1.02238e-14
-7.65609e-06
4.70904e-15
-7.65609e-06
-8.52344e-15
-7.65609e-06
6.61122e-15
-7.65609e-06
1.68517e-16
-7.65609e-06
1.12669e-14
-7.65609e-06
-1.81465e-15
-7.65609e-06
-1.50678e-14
-7.65609e-06
2.73081e-15
-7.65609e-06
1.05189e-14
-7.65609e-06
-2.56817e-14
-3.33727e-06
1.08527e-14
-3.33727e-06
-1.37416e-14
-3.33727e-06
-7.4973e-17
-3.33727e-06
7.11998e-15
-3.33727e-06
-5.77904e-15
-3.33727e-06
1.1126e-14
-3.33727e-06
-6.83042e-15
-3.33727e-06
3.17858e-16
-3.33727e-06
3.31748e-15
-3.33727e-06
-6.85081e-16
-3.33727e-06
1.47914e-15
-3.70939e-15
-3.72989e-06
-3.97972e-16
-3.72989e-06
-1.08624e-15
-3.72989e-06
-8.12226e-16
-3.72989e-06
3.13061e-15
-3.72989e-06
3.93217e-15
-3.72989e-06
-1.12717e-15
-3.72989e-06
2.98676e-15
-3.72989e-06
-2.85804e-15
-3.72989e-06
-4.37268e-15
-3.72989e-06
-4.3546e-15
-3.72989e-06
1.04875e-14
-6.27509e-15
-4.12251e-06
1.10638e-14
-4.12251e-06
-9.09923e-15
-4.12251e-06
-7.76395e-16
-4.12251e-06
7.7828e-15
-4.12251e-06
-6.65629e-15
-4.12251e-06
6.95318e-15
-4.12251e-06
-2.10041e-15
-4.12251e-06
-6.55724e-15
-4.12251e-06
2.56493e-15
-4.12251e-06
8.61019e-15
-4.12251e-06
-1.32138e-14
7.85383e-15
-4.51513e-06
-2.87824e-15
-4.51513e-06
7.0922e-15
-4.51513e-06
-1.72172e-15
-4.51513e-06
-4.14428e-15
-4.51513e-06
-4.00811e-15
-4.51513e-06
7.46669e-15
-4.51513e-06
-8.05142e-15
-4.51513e-06
7.44458e-15
-4.51513e-06
-6.87243e-15
-4.51513e-06
5.08088e-15
-4.51513e-06
-3.80226e-15
5.98355e-15
-4.90775e-06
-3.96182e-15
-4.90775e-06
1.07703e-14
-4.90775e-06
-1.41555e-14
-4.90775e-06
6.38424e-16
-4.90775e-06
9.90342e-16
-4.90775e-06
-1.32045e-15
-4.90775e-06
3.71407e-15
-4.90775e-06
5.20289e-15
-4.90775e-06
2.10241e-15
-4.90775e-06
1.05049e-15
-4.90775e-06
-1.27301e-14
3.54904e-15
-5.30037e-06
8.33812e-15
-5.30037e-06
3.57235e-15
-5.30037e-06
-2.88021e-15
-5.30037e-06
-6.00515e-15
-5.30037e-06
-3.18571e-15
-5.30037e-06
-1.56039e-15
-5.30037e-06
-2.72026e-15
-5.30037e-06
1.39648e-15
-5.30037e-06
1.22194e-14
-5.30037e-06
-3.89941e-15
-5.30037e-06
-1.32772e-15
8.07099e-16
-5.69299e-06
7.96017e-15
-5.69299e-06
-1.12997e-14
-5.69299e-06
1.42217e-15
-5.69299e-06
-5.17083e-16
-5.69299e-06
1.31587e-14
-5.69299e-06
-1.18387e-15
-5.69299e-06
-9.57165e-15
-5.69299e-06
-2.56336e-15
-5.69299e-06
1.00409e-15
-5.69299e-06
-9.26057e-15
-5.69299e-06
1.15359e-14
-2.36555e-15
-6.08561e-06
6.3284e-15
-6.08561e-06
-4.6582e-15
-6.08561e-06
1.56475e-14
-6.08561e-06
-8.20035e-15
-6.08561e-06
-1.93742e-15
-6.08561e-06
9.69276e-15
-6.08561e-06
-9.81278e-15
-6.08561e-06
1.1254e-14
-6.08561e-06
-1.44245e-14
-6.08561e-06
9.28536e-15
-6.08561e-06
1.70688e-15
-6.1333e-15
-6.47823e-06
5.62061e-15
-6.47823e-06
-9.12424e-16
-6.47823e-06
5.53547e-16
-6.47823e-06
-2.00694e-15
-6.47823e-06
-7.22191e-15
-6.47823e-06
1.01306e-14
-6.47823e-06
6.69512e-15
-6.47823e-06
-1.7741e-14
-6.47823e-06
-3.40755e-15
-6.47823e-06
3.23606e-15
-6.47823e-06
1.68483e-14
-1.01776e-14
-6.87085e-06
-1.64705e-14
-6.87085e-06
7.35299e-15
-6.87085e-06
1.64829e-14
-6.87085e-06
-1.07298e-14
-6.87085e-06
-2.63364e-16
-6.87085e-06
-2.30188e-15
-6.87085e-06
-1.55115e-15
-6.87085e-06
-3.4725e-15
-6.87085e-06
1.61966e-14
-6.87085e-06
-2.74032e-15
-6.87085e-06
-2.22916e-14
1.33706e-14
-7.26347e-06
-1.86187e-14
-7.26347e-06
1.22734e-14
-7.26347e-06
-2.53744e-14
-7.26347e-06
2.09792e-14
-7.26347e-06
-6.04875e-15
-7.26347e-06
-2.61748e-15
-7.26347e-06
1.74982e-14
-7.26347e-06
-8.03527e-15
-7.26347e-06
1.01234e-15
-7.26347e-06
-9.33059e-15
-7.26347e-06
-7.11595e-15
1.00216e-14
-7.65609e-06
2.06181e-14
-7.65609e-06
-4.34497e-15
-7.65609e-06
-3.2489e-15
-7.65609e-06
1.02573e-15
-7.65609e-06
-1.48371e-14
-7.65609e-06
1.09392e-14
-7.65609e-06
8.81905e-15
-7.65609e-06
-1.36547e-14
-7.65609e-06
1.44745e-14
-7.6561e-06
1.41325e-14
-7.65609e-06
-2.0738e-14
6.03658e-15
-8.04872e-06
-8.60583e-16
-8.04872e-06
-9.3392e-15
-8.04872e-06
-3.77946e-15
-8.04872e-06
-1.84588e-15
-8.04872e-06
1.00824e-15
-8.04872e-06
3.07162e-14
-8.04872e-06
-2.63505e-14
-8.04872e-06
-6.69599e-15
-8.04872e-06
2.18442e-14
-8.04872e-06
-6.21293e-15
-8.04872e-06
-1.88249e-15
1.60204e-14
-8.04872e-06
-8.44134e-06
5.64399e-15
-8.44134e-06
5.9125e-15
-8.44134e-06
-2.62744e-14
-8.44134e-06
9.94921e-15
-8.44134e-06
6.11611e-15
-8.44134e-06
1.0022e-14
-8.44134e-06
3.59955e-15
-8.44134e-06
-3.13203e-14
-8.44134e-06
3.34015e-14
-8.44134e-06
-2.59382e-14
-8.44134e-06
1.38366e-14
-6.21986e-15
-8.44134e-06
-8.83396e-06
1.25073e-14
-8.83396e-06
-1.29848e-14
-8.83396e-06
1.33943e-14
-8.83396e-06
3.7933e-15
-8.83396e-06
-3.18689e-14
-8.83396e-06
2.15177e-14
-8.83396e-06
-1.19855e-14
-8.83396e-06
-9.78227e-15
-8.83396e-06
2.58471e-14
-8.83396e-06
-2.7362e-14
-8.83396e-06
7.17656e-15
-6.73505e-15
-8.83396e-06
-9.22658e-06
-9.22658e-06
-9.22658e-06
-9.22658e-06
-9.22658e-06
-9.22658e-06
-9.22658e-06
-9.22658e-06
-9.22658e-06
-9.22658e-06
-9.22658e-06
-9.22658e-06
-8.04872e-06
-1.25779e-14
-8.04872e-06
2.06676e-15
-8.04872e-06
-1.53637e-14
-8.04872e-06
1.37793e-14
-8.04872e-06
1.98669e-15
-8.04872e-06
-7.52527e-15
-8.04872e-06
-8.0848e-15
-8.04872e-06
1.03815e-14
-8.04872e-06
2.07302e-14
-8.04872e-06
-2.08788e-14
-8.04872e-06
-1.06309e-14
1.34942e-14
-8.04872e-06
-8.44134e-06
9.82629e-15
-8.44134e-06
-1.36435e-14
-8.44134e-06
3.3342e-15
-8.44134e-06
2.11937e-14
-8.44134e-06
-3.71574e-14
-8.44134e-06
2.04023e-14
-8.44134e-06
1.15711e-14
-8.44134e-06
-2.97208e-14
-8.44134e-06
3.42653e-14
-8.44134e-06
-3.15582e-14
-8.44134e-06
6.07052e-15
6.68736e-15
-8.44134e-06
-8.83396e-06
7.16437e-15
-8.83396e-06
1.83553e-14
-8.83396e-06
-1.82587e-14
-8.83396e-06
-5.20122e-17
-8.83396e-06
1.78456e-14
-8.83396e-06
-1.12937e-14
-8.83396e-06
1.05687e-15
-8.83396e-06
7.19126e-15
-8.83396e-06
7.00388e-15
-8.83396e-06
-7.30707e-16
-8.83396e-06
-1.10044e-14
-7.96814e-16
-8.83396e-06
-9.22658e-06
-9.22658e-06
-9.22658e-06
-9.22658e-06
-9.22658e-06
-9.22658e-06
-9.22658e-06
-9.22658e-06
-9.22658e-06
-9.22658e-06
-9.22658e-06
-9.22658e-06
-8.04872e-06
1.17731e-14
-8.04872e-06
2.95827e-15
-8.04872e-06
-2.19247e-14
-8.04872e-06
1.01143e-14
-8.04872e-06
1.17717e-14
-8.04872e-06
-2.09728e-14
-8.04872e-06
-2.54905e-15
-8.04872e-06
2.56964e-15
-8.04872e-06
1.9807e-14
-8.04872e-06
1.38681e-15
-8.04872e-06
-2.17752e-14
-3.8576e-15
-8.04872e-06
-8.44134e-06
-1.67272e-14
-8.44134e-06
1.83431e-14
-8.44134e-06
-1.59652e-14
-8.44134e-06
2.92194e-14
-8.44134e-06
-1.53249e-14
-8.44134e-06
2.05092e-14
-8.44134e-06
-1.86675e-14
-8.44134e-06
-6.33215e-15
-8.44134e-06
-7.12327e-15
-8.44134e-06
-6.19095e-16
-8.44134e-06
1.72254e-14
-5.80908e-15
-8.44134e-06
-8.83396e-06
-1.18257e-14
-8.83396e-06
-9.30049e-16
-8.83396e-06
2.6058e-14
-8.83396e-06
-2.02997e-14
-8.83396e-06
2.41586e-14
-8.83396e-06
-1.55455e-14
-8.83396e-06
1.09544e-14
-8.83396e-06
-2.83312e-15
-8.83396e-06
2.9256e-16
-8.83396e-06
-2.26878e-15
-8.83396e-06
5.87898e-15
-4.58044e-15
-8.83396e-06
-9.22658e-06
-9.22658e-06
-9.22658e-06
-9.22658e-06
-9.22658e-06
-9.22658e-06
-9.22658e-06
-9.22658e-06
-9.22658e-06
-9.22658e-06
-9.22658e-06
-9.22658e-06
-8.04872e-06
2.0286e-14
-8.04872e-06
-1.96524e-14
-8.04872e-06
-3.18791e-15
-8.04872e-06
9.36078e-15
-8.04872e-06
7.62167e-15
-8.04872e-06
1.21693e-14
-8.04872e-06
-3.12898e-14
-8.04872e-06
1.20625e-14
-8.04872e-06
-3.86558e-15
-8.04872e-06
8.57982e-15
-8.04872e-06
-3.20263e-15
1.81597e-15
-8.44134e-06
-6.15229e-15
-8.44134e-06
1.06126e-14
-8.44134e-06
-4.94341e-15
-8.44134e-06
-7.10471e-16
-8.44134e-06
1.3026e-15
-8.44134e-06
1.25314e-14
-8.44134e-06
-1.06228e-14
-8.44134e-06
7.57703e-15
-8.44134e-06
-2.26732e-14
-8.44134e-06
1.08295e-15
-8.44134e-06
1.61017e-14
-2.83536e-15
-8.83396e-06
-7.92473e-15
-8.83396e-06
-5.43232e-15
-8.83396e-06
-4.92328e-15
-8.83396e-06
8.32996e-15
-8.83396e-06
1.07962e-14
-8.83396e-06
-3.54638e-15
-8.83396e-06
-2.21458e-14
-8.83396e-06
1.94549e-15
-8.83396e-06
2.71434e-14
-8.83396e-06
-6.27613e-15
-8.83396e-06
1.12732e-15
-8.15362e-15
-9.22658e-06
-9.22658e-06
-9.22658e-06
-9.22658e-06
-9.22658e-06
-9.22658e-06
-9.22658e-06
-9.22658e-06
-9.22658e-06
-9.22658e-06
-9.22658e-06
)
;

boundaryField
{
    rotor
    {
        type            calculated;
        value           nonuniform List<scalar> 
96
(
6.11444e-15
-8.70042e-15
1.26062e-15
-1.8268e-15
5.88822e-15
1.51747e-15
-9.57266e-15
6.91021e-15
1.53731e-15
4.91681e-16
-3.52134e-15
-2.35353e-15
-3.60623e-15
6.47109e-15
2.47096e-15
1.42554e-15
-5.07123e-15
5.59393e-16
9.07502e-16
-3.29978e-15
4.81586e-15
1.54844e-15
-8.10437e-16
-3.15625e-15
-3.46434e-15
6.61806e-15
-8.22271e-15
8.37098e-16
8.80184e-15
-7.66504e-15
4.28972e-15
-1.89079e-15
3.87194e-15
-6.51325e-15
9.39597e-15
-8.31328e-15
7.00185e-15
-1.17854e-14
1.01193e-14
-3.17314e-15
-7.13284e-17
4.41704e-15
-8.97218e-15
9.04557e-15
-9.39589e-15
1.01906e-14
-6.61382e-15
1.49224e-15
3.33727e-06
3.72989e-06
4.12251e-06
4.51513e-06
4.90775e-06
5.30037e-06
5.69299e-06
6.08561e-06
6.47823e-06
6.87085e-06
7.26347e-06
7.65609e-06
3.33727e-06
3.72989e-06
4.12251e-06
4.51513e-06
4.90775e-06
5.30037e-06
5.69299e-06
6.08561e-06
6.47823e-06
6.87085e-06
7.26347e-06
7.65609e-06
-3.33727e-06
-3.72989e-06
-4.12251e-06
-4.51513e-06
-4.90775e-06
-5.30037e-06
-5.69299e-06
-6.08561e-06
-6.47823e-06
-6.87085e-06
-7.26347e-06
-7.65609e-06
-3.33727e-06
-3.72989e-06
-4.12251e-06
-4.51513e-06
-4.90775e-06
-5.30037e-06
-5.69299e-06
-6.08561e-06
-6.47823e-06
-6.87085e-06
-7.26347e-06
-7.65609e-06
)
;
    }
    stator
    {
        type            calculated;
        value           nonuniform 0();
    }
    AMI1
    {
        type            cyclicAMI;
        value           nonuniform List<scalar> 
48
(
-1.7419e-14
3.81574e-15
2.70022e-14
-1.94856e-14
2.07881e-14
-1.38335e-14
4.86453e-15
1.25897e-14
-1.51382e-14
-2.8807e-14
2.47345e-14
-5.47019e-15
5.91825e-15
1.90748e-15
2.14329e-15
-1.15274e-14
1.13321e-14
2.40205e-15
-1.27256e-14
-1.08475e-14
3.07524e-14
-1.13282e-14
7.53571e-15
-9.2046e-15
-6.18525e-15
1.5171e-14
-2.53798e-15
-1.0621e-14
-7.32274e-15
7.41421e-15
-5.00278e-15
2.10038e-14
-9.16186e-15
-2.62281e-15
-1.47131e-15
2.16298e-14
-3.81649e-14
2.83688e-14
-6.88686e-15
-2.78106e-15
3.97601e-15
-3.93774e-15
1.0625e-15
-3.48978e-15
8.00696e-15
-1.51732e-14
2.24018e-14
-1.36767e-14
)
;
    }
    AMI2
    {
        type            cyclicAMI;
        value           nonuniform 0();
    }
    front
    {
        type            empty;
        value           nonuniform 0();
    }
    back
    {
        type            empty;
        value           nonuniform 0();
    }
    procBoundary3to2
    {
        type            processor;
        value           nonuniform List<scalar> 8(8.04872e-06 8.44134e-06 8.83396e-06 9.22658e-06 -8.04872e-06 -8.44134e-06 -8.83396e-06 -9.22658e-06);
    }
}


// ************************************************************************* //
