/*--------------------------------*- C++ -*----------------------------------*\
| =========                 |                                                 |
| \\      /  F ield         | OpenFOAM: The Open Source CFD Toolbox           |
|  \\    /   O peration     | Version:  v1806                                 |
|   \\  /    A nd           | Web:      www.OpenFOAM.com                      |
|    \\/     M anipulation  |                                                 |
\*---------------------------------------------------------------------------*/
FoamFile
{
    version     2.0;
    format      ascii;
    class       surfaceScalarField;
    location    "3";
    object      phi;
}
// * * * * * * * * * * * * * * * * * * * * * * * * * * * * * * * * * * * * * //

dimensions      [0 3 -1 0 0 0 0];
oriented        oriented;


internalField   nonuniform List<scalar> 
1460
(
5.18332e-09
-5.18336e-09
7.06055e-08
-6.54223e-08
1.47341e-07
-7.67357e-08
2.39044e-07
-9.17024e-08
3.36819e-07
-9.77755e-08
4.31755e-07
-9.49361e-08
5.23973e-07
-9.22185e-08
6.14148e-07
-9.0175e-08
6.91558e-07
-7.74097e-08
7.41564e-07
-5.00063e-08
7.45521e-07
-3.95669e-09
5.93879e-08
6.86133e-07
-3.07127e-08
2.55293e-08
2.78373e-08
-1.23972e-07
1.14433e-07
-1.63332e-07
1.99751e-07
-1.7702e-07
2.76098e-07
-1.74123e-07
3.44094e-07
-1.62933e-07
4.01393e-07
-1.49517e-07
4.45549e-07
-1.34331e-07
4.76729e-07
-1.08589e-07
4.69472e-07
-4.27499e-08
3.82059e-07
8.34569e-08
2.47295e-07
1.94152e-07
5.24055e-08
-2.68762e-08
1.22184e-07
-1.93751e-07
2.05841e-07
-2.46989e-07
2.78813e-07
-2.49991e-07
3.38303e-07
-2.33613e-07
3.80814e-07
-2.05443e-07
3.98374e-07
-1.67077e-07
3.74532e-07
-1.10489e-07
3.01702e-07
-3.57597e-08
1.61782e-07
9.71705e-08
-5.64183e-08
3.01657e-07
5.48644e-07
-3.57768e-07
2.39774e-08
-5.08536e-08
8.11337e-08
-2.50908e-07
1.3711e-07
-3.02965e-07
1.82692e-07
-2.95574e-07
2.18795e-07
-2.69716e-07
2.4321e-07
-2.29858e-07
2.48138e-07
-1.72006e-07
2.20117e-07
-8.24674e-08
1.29545e-07
5.48127e-08
-4.10735e-08
2.67789e-07
-3.00309e-07
5.60893e-07
8.63776e-07
-6.15441e-07
7.89268e-09
-5.87464e-08
3.72853e-08
-2.80301e-07
5.39616e-08
-3.19641e-07
6.8719e-08
-3.10331e-07
8.83978e-08
-2.89395e-07
1.09182e-07
-2.50642e-07
1.15376e-07
-1.782e-07
8.77048e-08
-5.47962e-08
7.16836e-09
1.35349e-07
-1.37796e-07
4.12753e-07
-3.38257e-07
7.61354e-07
1.08816e-06
-5.62645e-07
-2.84956e-08
-3.02509e-08
-6.88684e-08
-2.39928e-07
-1.16583e-07
-2.71926e-07
-1.43908e-07
-2.83007e-07
-1.37955e-07
-2.95348e-07
-1.00967e-07
-2.8763e-07
-5.0225e-08
-2.28942e-07
-1.88842e-08
-8.6137e-08
-3.01972e-08
1.46662e-07
-8.93379e-08
4.71894e-07
-1.76617e-07
8.48633e-07
1.18037e-06
-2.68827e-07
-8.90308e-08
5.87799e-08
-2.22438e-07
-1.0652e-07
-3.48305e-07
-1.46059e-07
-4.26321e-07
-2.04991e-07
-4.36272e-07
-2.85397e-07
-3.73908e-07
-3.49994e-07
-2.58904e-07
-3.43946e-07
-1.24689e-07
-2.20352e-07
-8.37941e-09
3.03528e-08
7.07137e-08
3.92801e-07
1.25613e-07
7.93734e-07
1.13471e-06
1.71279e-07
-1.74414e-07
2.33193e-07
-4.09606e-07
1.28672e-07
-6.09808e-07
5.41439e-08
-7.38402e-07
-7.6398e-08
-7.70548e-07
-2.53251e-07
-6.86225e-07
-4.34317e-07
-5.02349e-07
-5.27823e-07
-2.48817e-07
-4.73884e-07
2.3013e-08
-2.41477e-07
2.76403e-07
1.3941e-07
4.93037e-07
5.77101e-07
9.53634e-07
6.74109e-07
-2.66253e-07
4.99446e-07
-5.67917e-07
4.30335e-07
-7.94175e-07
2.80403e-07
-9.23456e-07
5.28823e-08
-9.53042e-07
-2.23665e-07
-8.57046e-07
-5.30313e-07
-6.53119e-07
-7.3175e-07
-3.47185e-07
-7.79818e-07
3.90633e-08
-6.27725e-07
4.54558e-07
-2.76084e-07
8.4375e-07
1.87909e-07
6.2794e-07
1.16944e-06
-3.08628e-07
8.08074e-07
-5.55774e-07
6.77482e-07
-6.65608e-07
3.90236e-07
-6.86524e-07
7.37987e-08
-6.26126e-07
-2.84063e-07
-5.17502e-07
-6.38937e-07
-3.57888e-07
-8.91364e-07
-1.31701e-07
-1.00601e-06
1.92735e-07
-9.52161e-07
6.25863e-07
-7.09213e-07
1.11544e-06
-3.01667e-07
1.67625e-07
1.57575e-06
-1.03768e-07
9.11841e-07
-5.1515e-08
6.25229e-07
1.06146e-07
2.32575e-07
2.91228e-07
-1.11284e-07
4.64745e-07
-4.57579e-07
5.86357e-07
-7.6055e-07
6.73437e-07
-9.78444e-07
7.53104e-07
-1.08567e-06
8.72034e-07
-1.07109e-06
1.09168e-06
-9.28863e-07
1.44502e-06
-6.55e-07
-2.78106e-07
1.89075e-06
6.84171e-07
2.2767e-07
1.23633e-06
7.30698e-08
1.61347e-06
-1.44562e-07
1.89388e-06
-3.91699e-07
2.08324e-06
-6.46936e-07
2.18566e-06
-8.62966e-07
2.21843e-06
-1.01121e-06
2.20437e-06
-1.07161e-06
2.17064e-06
-1.03736e-06
2.15748e-06
-9.15705e-07
2.22602e-06
-7.23541e-07
2.4156e-06
-4.67685e-07
5.76324e-07
1.09809e-07
4.35672e-07
1.40652e-07
2.8694e-07
1.48733e-07
1.60363e-07
1.26577e-07
9.1615e-08
6.8748e-08
1.00227e-07
-8.61162e-09
1.84787e-07
-8.45605e-08
3.25029e-07
-1.40242e-07
4.02461e-07
-7.74324e-08
3.65881e-07
3.65805e-08
1.87876e-07
1.78005e-07
1.87876e-07
-9.24972e-08
3.96458e-07
-4.29589e-07
4.77743e-07
-7.33017e-07
4.52161e-07
-9.25805e-07
3.19364e-07
-9.73062e-07
1.16005e-07
-8.55749e-07
-1.25925e-07
-6.40294e-07
-3.00015e-07
-3.76497e-07
-4.04038e-07
-9.90078e-08
-3.54922e-07
8.29548e-08
-1.45382e-07
9.27563e-08
1.68204e-07
2.80632e-07
-7.07323e-07
7.46013e-07
-1.03627e-06
8.06686e-07
-1.28484e-06
7.00737e-07
-1.43004e-06
4.64562e-07
-1.47258e-06
1.5855e-07
-1.44295e-06
-1.55555e-07
-1.27688e-06
-4.66085e-07
-9.92429e-07
-6.88493e-07
-6.06051e-07
-7.413e-07
-2.30105e-07
-5.21328e-07
-6.80551e-09
-5.50957e-08
2.73826e-07
-9.29438e-07
1.06001e-06
-1.18536e-06
1.06261e-06
-1.35713e-06
8.72504e-07
-1.45418e-06
5.61615e-07
-1.50434e-06
2.08712e-07
-1.51608e-06
-1.43813e-07
-1.48866e-06
-4.93506e-07
-1.34857e-06
-8.28589e-07
-1.02824e-06
-1.06163e-06
-5.45504e-07
-1.00406e-06
-1.00695e-07
-4.99905e-07
1.73132e-07
-7.63751e-07
1.26112e-06
-9.02354e-07
1.20121e-06
-9.70786e-07
9.40937e-07
-9.97664e-07
5.88492e-07
-1.03125e-06
2.42299e-07
-1.1072e-06
-6.78652e-08
-1.21738e-06
-3.83327e-07
-1.29335e-06
-7.52614e-07
-1.20107e-06
-1.15391e-06
-8.26679e-07
-1.37845e-06
-2.70174e-07
-1.05641e-06
-9.70425e-08
-3.44169e-07
1.33646e-06
-3.87958e-07
1.245e-06
-4.03727e-07
9.56705e-07
-4.14061e-07
5.98826e-07
-4.46882e-07
2.7512e-07
-5.30372e-07
1.56245e-08
-6.94729e-07
-2.1897e-07
-9.17307e-07
-5.30036e-07
-1.07936e-06
-9.9186e-07
-9.69301e-07
-1.48851e-06
-4.77857e-07
-1.54785e-06
-5.74899e-07
2.07302e-07
1.30044e-06
2.26347e-07
1.22595e-06
2.2207e-07
9.60982e-07
1.91125e-07
6.29772e-07
1.32503e-07
3.33742e-07
3.76044e-08
1.10523e-07
-1.21435e-07
-5.99306e-08
-3.73141e-07
-2.7833e-07
-6.8383e-07
-6.81172e-07
-8.67871e-07
-1.30447e-06
-6.15053e-07
-1.80067e-06
-1.18995e-06
8.09475e-07
1.16507e-06
8.81797e-07
1.15363e-06
8.86808e-07
9.55971e-07
8.39113e-07
6.77467e-07
7.55409e-07
4.17446e-07
6.33669e-07
2.32264e-07
4.58107e-07
1.15632e-07
2.09603e-07
-2.98259e-08
-1.18543e-07
-3.53026e-07
-4.6961e-07
-9.53399e-07
-5.40096e-07
-1.73019e-06
-1.73005e-06
1.41089e-06
9.23622e-07
1.5485e-06
1.01603e-06
1.58074e-06
9.23722e-07
1.53059e-06
7.2762e-07
1.42443e-06
5.23605e-07
1.27051e-06
3.8619e-07
1.06139e-06
3.24748e-07
7.93319e-07
2.38245e-07
4.71282e-07
-3.09886e-08
1.10236e-07
-5.92353e-07
-2.0193e-07
-1.41802e-06
-1.93198e-06
1.93839e-06
5.60988e-07
2.16845e-06
7.85964e-07
2.25849e-06
8.33679e-07
2.22832e-06
7.57795e-07
2.10821e-06
6.43718e-07
1.92333e-06
5.71066e-07
1.6887e-06
5.59378e-07
1.40669e-06
5.20253e-07
1.07411e-06
3.01597e-07
6.90057e-07
-2.08304e-07
2.59256e-07
-9.87218e-07
-1.67272e-06
2.32492e-06
1.26819e-07
2.65228e-06
4.58604e-07
2.82939e-06
6.56567e-07
2.85465e-06
7.32533e-07
2.75456e-06
7.43806e-07
2.5696e-06
7.5603e-07
2.33844e-06
7.90539e-07
2.07449e-06
7.84202e-07
1.75356e-06
6.22526e-07
1.32465e-06
2.20609e-07
7.36318e-07
-3.98888e-07
-9.36405e-07
2.71405e-06
-1.71633e-07
3.0278e-06
1.44856e-07
3.26e-06
4.24372e-07
3.35989e-06
6.32643e-07
3.32736e-06
7.76338e-07
3.19876e-06
8.84625e-07
3.02181e-06
9.67489e-07
2.82055e-06
9.85464e-07
2.56881e-06
8.74265e-07
2.15669e-06
6.32724e-07
1.3974e-06
3.60404e-07
4.60997e-07
2.71296e-08
-2.71296e-08
9.84604e-08
-7.13308e-08
1.86592e-07
-8.81314e-08
2.76685e-07
-9.00926e-08
3.64708e-07
-8.80237e-08
4.51056e-07
-8.63478e-08
5.39357e-07
-8.83007e-08
6.27515e-07
-8.81581e-08
7.02152e-07
-7.46368e-08
7.47422e-07
-4.52706e-08
7.43362e-07
4.06042e-09
6.75775e-08
6.75784e-07
-1.74092e-08
-9.72037e-09
4.28328e-08
-1.31573e-07
1.195e-07
-1.64799e-07
1.98922e-07
-1.69515e-07
2.74638e-07
-1.63739e-07
3.43339e-07
-1.55049e-07
4.01073e-07
-1.46035e-07
4.46054e-07
-1.33139e-07
4.77464e-07
-1.06047e-07
4.62897e-07
-3.07036e-08
3.63536e-07
1.03422e-07
2.71366e-07
1.59748e-07
3.05259e-08
-4.02462e-08
9.99658e-08
-2.01013e-07
1.82169e-07
-2.47001e-07
2.56399e-07
-2.43745e-07
3.17398e-07
-2.24739e-07
3.59925e-07
-1.97575e-07
3.76209e-07
-1.62319e-07
3.48792e-07
-1.05722e-07
2.70629e-07
-2.78842e-08
1.23675e-07
1.1625e-07
-1.05908e-07
3.33005e-07
5.83821e-07
-4.18363e-07
1.81536e-08
-5.83998e-08
6.85735e-08
-2.51433e-07
1.19892e-07
-2.9832e-07
1.63399e-07
-2.87252e-07
1.98383e-07
-2.59723e-07
2.20644e-07
-2.19836e-07
2.21101e-07
-1.62776e-07
1.8628e-07
-7.09007e-08
8.72291e-08
7.11663e-08
-9.43614e-08
2.9784e-07
-3.6186e-07
6.00504e-07
8.99443e-07
-6.77482e-07
3.11185e-09
-6.15117e-08
2.91827e-08
-2.77503e-07
4.30961e-08
-3.12233e-07
5.61327e-08
-3.00289e-07
7.37936e-08
-2.77384e-07
9.05649e-08
-2.36607e-07
8.97501e-08
-1.61961e-07
5.43724e-08
-3.5523e-08
-3.55813e-08
1.6112e-07
-1.86911e-07
4.4917e-07
-3.88085e-07
8.01678e-07
1.1165e-06
-6.05147e-07
-3.0473e-08
-3.10387e-08
-7.25057e-08
-2.35471e-07
-1.20386e-07
-2.64353e-07
-1.47714e-07
-2.7296e-07
-1.4278e-07
-2.82318e-07
-1.08858e-07
-2.7053e-07
-6.35081e-08
-2.07311e-07
-4.01485e-08
-5.88826e-08
-5.90168e-08
1.79988e-07
-1.20116e-07
5.10269e-07
-2.02851e-07
8.84413e-07
1.19899e-06
-2.85337e-07
-8.84312e-08
5.73926e-08
-2.20012e-07
-1.0389e-07
-3.4416e-07
-1.40205e-07
-4.20549e-07
-1.96571e-07
-4.29975e-07
-2.72892e-07
-3.68327e-07
-3.32177e-07
-2.56677e-07
-3.18961e-07
-1.25626e-07
-1.89933e-07
-1.38991e-08
6.82612e-08
6.51069e-08
4.31264e-07
1.25486e-07
8.24034e-07
1.14563e-06
1.78847e-07
-1.72143e-07
2.29536e-07
-4.04584e-07
1.28551e-07
-6.01891e-07
5.71015e-08
-7.2794e-07
-7.05224e-08
-7.58972e-07
-2.41859e-07
-6.72223e-07
-4.18926e-07
-4.86139e-07
-5.05045e-07
-2.3297e-07
-4.43103e-07
4.1453e-08
-2.06161e-07
2.95916e-07
1.76801e-07
5.16165e-07
6.03785e-07
9.60851e-07
7.00943e-07
-2.63756e-07
4.93292e-07
-5.63944e-07
4.28739e-07
-7.89012e-07
2.82169e-07
-9.17683e-07
5.81495e-08
-9.45373e-07
-2.1417e-07
-8.46345e-07
-5.17953e-07
-6.3658e-07
-7.1481e-07
-3.23335e-07
-7.56348e-07
6.85153e-08
-5.98012e-07
4.91528e-07
-2.46212e-07
8.83392e-07
2.1192e-07
6.34694e-07
1.20955e-06
-3.09117e-07
8.02409e-07
-5.569e-07
6.76522e-07
-6.66569e-07
3.91838e-07
-6.86357e-07
7.7937e-08
-6.24601e-07
-2.75925e-07
-5.13194e-07
-6.2936e-07
-3.48995e-07
-8.79009e-07
-1.14999e-07
-9.90344e-07
2.20183e-07
-9.33194e-07
6.62504e-07
-6.88533e-07
1.16045e-06
-2.86022e-07
1.73842e-07
1.6213e-06
-1.09568e-07
9.11977e-07
-5.83326e-08
6.25286e-07
1.02609e-07
2.30897e-07
2.92139e-07
-1.11593e-07
4.70138e-07
-4.53924e-07
5.94282e-07
-7.53504e-07
6.83384e-07
-9.6811e-07
7.65944e-07
-1.0729e-06
8.9049e-07
-1.05774e-06
1.11911e-06
-9.17158e-07
1.48088e-06
-6.47789e-07
-2.77355e-07
1.93208e-06
6.78006e-07
2.33972e-07
1.23345e-06
6.98393e-08
1.61639e-06
-1.52036e-07
1.90321e-06
-3.98419e-07
2.09823e-06
-6.48943e-07
2.20373e-06
-8.59002e-07
2.23722e-06
-1.00161e-06
2.22266e-06
-1.05834e-06
2.18869e-06
-1.02377e-06
2.17749e-06
-9.05952e-07
2.25026e-06
-7.2056e-07
2.44533e-06
-4.72424e-07
5.59425e-07
1.1636e-07
4.13227e-07
1.46198e-07
2.59374e-07
1.53853e-07
1.28881e-07
1.30493e-07
5.9752e-08
6.91289e-08
7.19847e-08
-1.22327e-08
1.64645e-07
-9.26599e-08
3.15856e-07
-1.51212e-07
4.0066e-07
-8.48035e-08
3.67231e-07
3.34287e-08
1.89271e-07
1.77961e-07
1.89271e-07
-1.42525e-07
4.18633e-07
-4.89037e-07
4.9271e-07
-7.92309e-07
4.57125e-07
-9.77204e-07
3.15388e-07
-1.01345e-06
1.05373e-07
-8.87944e-07
-1.37736e-07
-6.64768e-07
-3.15835e-07
-3.94995e-07
-4.20985e-07
-1.09754e-07
-3.70044e-07
7.80965e-08
-1.54422e-07
9.19669e-08
1.6409e-07
2.81238e-07
-7.72304e-07
7.72574e-07
-1.09637e-06
8.16777e-07
-1.33438e-06
6.95133e-07
-1.46908e-06
4.50084e-07
-1.50551e-06
1.41806e-07
-1.4664e-06
-1.76845e-07
-1.29855e-06
-4.83689e-07
-1.01188e-06
-7.07652e-07
-6.20929e-07
-7.60994e-07
-2.3719e-07
-5.38161e-07
-7.77639e-09
-6.53232e-08
2.73461e-07
-9.821e-07
1.07719e-06
-1.22182e-06
1.0565e-06
-1.37726e-06
8.50575e-07
-1.46301e-06
5.3583e-07
-1.508e-06
1.86795e-07
-1.52327e-06
-1.6157e-07
-1.49829e-06
-5.08671e-07
-1.36086e-06
-8.45082e-07
-1.0406e-06
-1.08125e-06
-5.53775e-07
-1.02499e-06
-1.03285e-07
-5.15813e-07
1.70176e-07
-7.91399e-07
1.26344e-06
-9.12696e-07
1.17779e-06
-9.6759e-07
9.05469e-07
-9.88032e-07
5.56273e-07
-1.02157e-06
2.20329e-07
-1.10227e-06
-8.08705e-08
-1.21838e-06
-3.92557e-07
-1.30029e-06
-7.63176e-07
-1.21184e-06
-1.1697e-06
-8.37051e-07
-1.39977e-06
-2.75002e-07
-1.07786e-06
-1.04826e-07
-3.48223e-07
1.32633e-06
-3.80894e-07
1.21046e-06
-3.90466e-07
9.15041e-07
-3.99951e-07
5.65758e-07
-4.34969e-07
2.55347e-07
-5.22071e-07
6.23207e-09
-6.91299e-07
-2.23329e-07
-9.19724e-07
-5.3475e-07
-1.08742e-06
-1.00201e-06
-9.80666e-07
-1.50652e-06
-4.86435e-07
-1.57209e-06
-5.91261e-07
2.21167e-07
1.28401e-06
2.43443e-07
1.18819e-06
2.39427e-07
9.19056e-07
2.07234e-07
5.97951e-07
1.46916e-07
3.15664e-07
4.98609e-08
1.03287e-07
-1.12465e-07
-6.10028e-08
-3.68507e-07
-2.78708e-07
-6.84732e-07
-6.85785e-07
-8.74816e-07
-1.31644e-06
-6.238e-07
-1.82311e-06
-1.21506e-06
8.36782e-07
1.14817e-06
9.06335e-07
1.11863e-06
9.07953e-07
9.17437e-07
8.58212e-07
6.47693e-07
7.73424e-07
4.00452e-07
6.50365e-07
2.26346e-07
4.72782e-07
1.1658e-07
2.21517e-07
-2.74433e-08
-1.10553e-07
-3.53714e-07
-4.6715e-07
-9.59842e-07
-5.4387e-07
-1.74639e-06
-1.75893e-06
1.44758e-06
9.1014e-07
1.57882e-06
9.87393e-07
1.60521e-06
8.91048e-07
1.55184e-06
7.01064e-07
1.4444e-06
5.07896e-07
1.28978e-06
3.80968e-07
1.0798e-06
3.26555e-07
8.10159e-07
2.42199e-07
4.85225e-07
-2.87806e-08
1.20375e-07
-5.94992e-07
-1.98503e-07
-1.42751e-06
-1.95743e-06
1.9797e-06
5.51739e-07
2.20235e-06
7.64745e-07
2.28529e-06
8.08105e-07
2.25074e-06
7.35619e-07
2.12898e-06
6.29652e-07
1.94406e-06
5.65889e-07
1.70968e-06
5.6093e-07
1.42689e-06
5.24993e-07
1.09163e-06
3.06483e-07
7.02967e-07
-2.06333e-07
2.66469e-07
-9.91015e-07
-1.69096e-06
2.36498e-06
1.18838e-07
2.68664e-06
4.43082e-07
2.85719e-06
6.37559e-07
2.87792e-06
7.14887e-07
2.77603e-06
7.31541e-07
2.59121e-06
7.50713e-07
2.36062e-06
7.91517e-07
2.09616e-06
7.89453e-07
1.77289e-06
6.29754e-07
1.33956e-06
2.27001e-07
7.45623e-07
-3.97081e-07
-9.4534e-07
2.74635e-06
-1.82184e-07
3.05819e-06
1.31236e-07
3.2863e-06
4.09447e-07
3.38293e-06
6.18265e-07
3.34888e-06
7.65591e-07
3.22007e-06
8.79516e-07
3.04312e-06
9.68476e-07
2.84094e-06
9.91631e-07
2.58698e-06
8.83713e-07
2.17146e-06
6.42522e-07
1.4069e-06
3.67479e-07
4.61556e-07
3.09254e-06
2.42382e-07
3.24401e-06
-7.83969e-08
3.40107e-06
-3.01619e-07
3.53855e-06
-5.29186e-07
3.62666e-06
-7.35042e-07
3.67146e-06
-9.07769e-07
3.68342e-06
-1.02317e-06
3.67073e-06
-1.05892e-06
3.63579e-06
-1.00242e-06
3.57858e-06
-8.58496e-07
3.50985e-06
-6.54812e-07
-4.2935e-07
3.47151e-06
4.64146e-06
1.4504e-07
4.70538e-06
-1.42316e-07
4.79231e-06
-3.88544e-07
4.86269e-06
-5.99574e-07
4.90773e-06
-7.80076e-07
4.925e-06
-9.25043e-07
4.92255e-06
-1.02072e-06
4.91218e-06
-1.04855e-06
4.90256e-06
-9.92807e-07
4.893e-06
-8.48929e-07
4.87382e-06
-6.35635e-07
-3.93611e-07
4.83808e-06
5.98088e-06
5.95783e-08
6.05998e-06
-2.21417e-07
6.13281e-06
-4.61377e-07
6.18198e-06
-6.48742e-07
6.20074e-06
-7.98838e-07
6.19247e-06
-9.16764e-07
6.16721e-06
-9.95471e-07
6.13556e-06
-1.01689e-06
6.10386e-06
-9.61105e-07
6.07399e-06
-8.19063e-07
6.05055e-06
-6.12192e-07
-3.87468e-07
6.04441e-06
7.32258e-06
7.37883e-06
7.41124e-06
7.41298e-06
7.38561e-06
7.34036e-06
7.29025e-06
7.2449e-06
7.20489e-06
7.15972e-06
7.10882e-06
7.09063e-06
3.5027e-06
-2.02819e-07
3.61487e-06
3.26869e-08
3.75792e-06
2.8132e-07
3.86376e-06
5.26807e-07
3.89387e-06
7.46219e-07
3.85171e-06
9.26788e-07
3.76612e-06
1.05308e-06
3.65838e-06
1.0932e-06
3.52058e-06
1.01207e-06
3.33431e-06
8.18994e-07
3.12459e-06
5.70129e-07
4.74002e-07
3.11158e-06
4.78194e-06
-1.46673e-07
4.72269e-06
9.19285e-08
4.68296e-06
3.21056e-07
4.6673e-06
5.42464e-07
4.66216e-06
7.5136e-07
4.65339e-06
9.35562e-07
4.63849e-06
1.06798e-06
4.61872e-06
1.11297e-06
4.58803e-06
1.04276e-06
4.54276e-06
8.64263e-07
4.49121e-06
6.21682e-07
4.01569e-07
4.56364e-06
6.05004e-06
-1.5231e-07
6.02995e-06
1.12021e-07
5.97049e-06
3.80519e-07
5.88715e-06
6.25805e-07
5.81014e-06
8.28365e-07
5.76102e-06
9.8468e-07
5.74605e-06
1.08295e-06
5.7586e-06
1.10042e-06
5.78447e-06
1.01689e-06
5.81321e-06
8.35517e-07
5.8485e-06
5.86392e-07
3.20495e-07
5.92958e-06
7.12683e-06
7.17101e-06
7.19779e-06
7.18843e-06
7.15076e-06
7.11031e-06
7.08986e-06
7.09835e-06
7.13053e-06
7.17629e-06
7.22954e-06
7.29642e-06
3.11006e-06
2.35496e-07
3.26777e-06
-8.78738e-08
3.42559e-06
-3.0986e-07
3.56393e-06
-5.36755e-07
3.65243e-06
-7.37442e-07
3.69625e-06
-9.0282e-07
3.70616e-06
-1.01152e-06
3.6913e-06
-1.04348e-06
3.65489e-06
-9.87358e-07
3.597e-06
-8.48062e-07
3.52867e-06
-6.52225e-07
-4.35358e-07
3.4916e-06
4.66747e-06
1.3167e-07
4.73352e-06
-1.53923e-07
4.81913e-06
-3.95472e-07
4.88747e-06
-6.051e-07
4.93008e-06
-7.80048e-07
4.94434e-06
-9.1708e-07
4.93847e-06
-1.00565e-06
4.92507e-06
-1.03008e-06
4.9139e-06
-9.76191e-07
4.90493e-06
-8.39091e-07
4.8882e-06
-6.35492e-07
-4.02277e-07
4.85512e-06
6.01837e-06
4.28792e-08
6.09401e-06
-2.29569e-07
6.16109e-06
-4.62552e-07
6.20426e-06
-6.48265e-07
6.21775e-06
-7.9354e-07
6.20454e-06
-9.03868e-07
6.17438e-06
-9.75497e-07
6.13824e-06
-9.93937e-07
6.10374e-06
-9.4169e-07
6.07454e-06
-8.09893e-07
6.05616e-06
-6.17113e-07
-4.02674e-07
6.05656e-06
7.36382e-06
7.41411e-06
7.43777e-06
7.4309e-06
7.39719e-06
7.34703e-06
7.29262e-06
7.24287e-06
7.19829e-06
7.14971e-06
7.10023e-06
7.08953e-06
3.52375e-06
-2.14332e-07
3.63491e-06
2.0075e-08
3.77627e-06
2.68088e-07
3.88122e-06
5.13315e-07
3.91116e-06
7.35654e-07
3.86902e-06
9.21656e-07
3.78301e-06
1.05448e-06
3.67389e-06
1.10076e-06
3.53347e-06
1.02413e-06
3.34311e-06
8.3288e-07
3.1291e-06
5.81488e-07
4.81379e-07
4.79831e-06
-1.57527e-07
4.7342e-06
8.41875e-08
4.68977e-06
3.1252e-07
4.67254e-06
5.30546e-07
4.66778e-06
7.40407e-07
4.65991e-06
9.29526e-07
4.64534e-06
1.06905e-06
4.62479e-06
1.12131e-06
4.5921e-06
1.05682e-06
4.54378e-06
8.81198e-07
4.48783e-06
6.37438e-07
4.13776e-07
6.06422e-06
-1.6519e-07
6.03806e-06
1.10356e-07
5.97051e-06
3.80066e-07
5.88176e-06
6.19296e-07
5.80247e-06
8.19695e-07
5.75301e-06
9.78987e-07
5.73833e-06
1.08373e-06
5.75089e-06
1.10875e-06
5.77603e-06
1.03169e-06
5.8031e-06
8.54126e-07
5.83565e-06
6.04893e-07
3.36259e-07
7.13288e-06
7.17637e-06
7.19726e-06
7.18055e-06
7.13822e-06
7.0947e-06
7.07244e-06
7.07998e-06
7.11163e-06
7.15687e-06
7.20912e-06
)
;

boundaryField
{
    rotor
    {
        type            calculated;
        value           nonuniform List<scalar> 
96
(
2.06793e-24
-1.24852e-23
-2.09122e-23
-5.6636e-23
7.92801e-23
4.20053e-23
-2.1791e-23
-9.16878e-23
5.4413e-23
1.44757e-23
-1.72415e-23
-1.77844e-23
-9.60046e-23
1.01588e-22
-9.2515e-23
-1.14875e-22
3.36042e-23
2.09639e-23
4.32719e-23
-1.05e-22
2.73228e-23
-2.26699e-23
8.45275e-24
-1.30022e-23
2.32903e-23
1.95421e-23
8.27184e-24
-4.4978e-24
-1.55097e-23
-9.19721e-23
-1.23095e-22
1.54037e-22
1.05465e-23
-7.87631e-23
-1.51736e-22
-2.44535e-23
-4.74595e-23
-3.9291e-23
-5.18798e-23
-8.87151e-23
-4.3763e-23
-2.7814e-23
1.61301e-23
6.15732e-23
-4.05577e-23
1.83272e-23
1.16325e-24
-7.00519e-24
-4.23516e-22
0
0
8.47033e-22
0
0
0
0
0
8.47033e-22
0
0
0
0
8.47033e-22
-8.47033e-22
-8.47033e-22
-8.47033e-22
0
0
-8.47033e-22
1.69407e-21
-8.47033e-22
0
0
4.23516e-22
-8.47033e-22
0
8.47033e-22
8.47033e-22
0
0
8.47033e-22
-1.69407e-21
8.47033e-22
0
-4.23516e-22
0
0
0
0
8.47033e-22
8.47033e-22
-8.47033e-22
0
8.47033e-22
-8.47033e-22
0
)
;
    }
    stator
    {
        type            calculated;
        value           nonuniform 0();
    }
    AMI1
    {
        type            cyclicAMI;
        value           nonuniform List<scalar> 
48
(
-9.46448e-09
-2.77665e-07
-4.93788e-07
-6.50483e-07
-7.71466e-07
-8.71508e-07
-9.45363e-07
-9.71541e-07
-9.21103e-07
-7.73886e-07
-5.61294e-07
-3.69283e-07
-1.8851e-07
6.7842e-08
3.53737e-07
6.35167e-07
8.66039e-07
1.02513e-06
1.1034e-06
1.09193e-06
9.84705e-07
7.8976e-07
5.33141e-07
2.53614e-07
-2.45232e-08
-2.79853e-07
-4.86211e-07
-6.41393e-07
-7.59839e-07
-8.53699e-07
-9.21092e-07
-9.44189e-07
-8.97108e-07
-7.61317e-07
-5.67634e-07
-3.91971e-07
-2.08543e-07
6.6865e-08
3.59181e-07
6.36003e-07
8.6203e-07
1.0225e-06
1.10599e-06
1.10121e-06
1.00003e-06
8.08879e-07
5.52645e-07
2.70269e-07
)
;
    }
    AMI2
    {
        type            cyclicAMI;
        value           nonuniform 0();
    }
    front
    {
        type            empty;
        value           nonuniform 0();
    }
    back
    {
        type            empty;
        value           nonuniform 0();
    }
    procBoundary3to2
    {
        type            processor;
        value           nonuniform List<scalar> 8(-3.10725e-06 -4.54412e-06 -5.89542e-06 -7.25354e-06 3.10928e-06 4.55544e-06 5.91316e-06 7.27511e-06);
    }
}


// ************************************************************************* //
