/*--------------------------------*- C++ -*----------------------------------*\
| =========                 |                                                 |
| \\      /  F ield         | OpenFOAM: The Open Source CFD Toolbox           |
|  \\    /   O peration     | Version:  v1806                                 |
|   \\  /    A nd           | Web:      www.OpenFOAM.com                      |
|    \\/     M anipulation  |                                                 |
\*---------------------------------------------------------------------------*/
FoamFile
{
    version     2.0;
    format      ascii;
    class       volVectorField;
    location    "3";
    object      U;
}
// * * * * * * * * * * * * * * * * * * * * * * * * * * * * * * * * * * * * * //

dimensions      [0 1 -1 0 0 0 0];


internalField   nonuniform List<vector> 
768
(
(0.0133235 0.136367 3.17123e-20)
(0.0204347 0.130092 -4.42134e-20)
(0.029564 0.12719 2.81828e-21)
(0.0354296 0.120415 8.65987e-20)
(0.0411867 0.114678 5.06012e-19)
(0.0467126 0.1086 -1.00639e-18)
(0.0517074 0.102188 4.96665e-19)
(0.0561705 0.0956021 1.58864e-19)
(0.0605274 0.0888437 0)
(0.065431 0.0818808 0)
(0.0712384 0.0750475 0)
(0.0777315 0.0700629 0)
(0.00133432 0.152454 9.09926e-20)
(0.00238584 0.150552 -2.25704e-19)
(0.00908886 0.147075 2.27204e-19)
(0.016902 0.142812 -1.44998e-19)
(0.0255221 0.138155 -2.94438e-19)
(0.0341813 0.133177 1.42421e-19)
(0.0423716 0.128123 0)
(0.0501843 0.123196 1.34118e-19)
(0.0581849 0.118162 0)
(0.0674152 0.112303 8.55971e-19)
(0.0798362 0.10496 -8.60377e-19)
(0.0957867 0.0970645 -5.73334e-19)
(0.00745446 0.163615 4.77918e-20)
(0.0100932 0.162106 2.16032e-21)
(0.0168398 0.158098 -1.28207e-19)
(0.0255456 0.153513 1.29991e-19)
(0.0350459 0.148775 5.8844e-21)
(0.0449048 0.143791 -6.34804e-19)
(0.0549937 0.138759 5.05546e-19)
(0.0656957 0.1341 -2.5881e-19)
(0.0782146 0.12976 0)
(0.0934742 0.124765 -2.64679e-19)
(0.112235 0.117987 5.27696e-19)
(0.13491 0.109517 -7.59138e-21)
(0.00266991 0.181545 1.4633e-20)
(0.00425789 0.180303 5.60916e-20)
(0.0128242 0.176838 -1.07827e-19)
(0.0241212 0.1734 -1.078e-19)
(0.0361622 0.169505 -1.011e-19)
(0.0485153 0.164906 4.45592e-19)
(0.0612697 0.1597 -8.93134e-19)
(0.0749204 0.153915 4.50032e-19)
(0.0913873 0.14737 -4.49542e-19)
(0.112356 0.139137 8.89728e-19)
(0.137715 0.128737 -4.53222e-21)
(0.164915 0.117366 -3.86853e-19)
(0.00387643 0.1979 1.85301e-21)
(0.00587517 0.19728 4.70635e-20)
(0.0159884 0.194886 3.69135e-21)
(0.0290553 0.192601 1.00639e-19)
(0.0427741 0.189235 3.97115e-19)
(0.0569377 0.184451 -3.831e-19)
(0.0719376 0.178273 -1.87384e-19)
(0.0882487 0.170701 0)
(0.107087 0.161754 -3.84538e-19)
(0.130139 0.150691 2.39572e-20)
(0.156661 0.136902 -5.20598e-19)
(0.182796 0.122108 2.57041e-20)
(0.00430384 0.215121 -1.3258e-22)
(0.00825902 0.215651 1.20788e-19)
(0.0209956 0.215696 0)
(0.0356206 0.215355 0)
(0.0502486 0.2129 0)
(0.0651163 0.207926 1.7401e-19)
(0.0809264 0.200169 1.74719e-19)
(0.0984047 0.189412 0)
(0.118575 0.176152 -3.19601e-19)
(0.142001 0.160895 1.2168e-18)
(0.167084 0.143249 -5.6288e-19)
(0.189682 0.124845 7.86049e-19)
(0.00749309 0.231788 -1.79235e-21)
(0.0148742 0.234879 -7.40942e-20)
(0.0296896 0.238134 0)
(0.0450079 0.240112 -1.37953e-19)
(0.059633 0.23899 8.732e-21)
(0.0740517 0.234034 0)
(0.0893634 0.224633 0)
(0.10637 0.210397 5.17062e-19)
(0.125745 0.192056 -2.70705e-19)
(0.147537 0.171419 -2.58638e-20)
(0.169653 0.149395 -2.54364e-20)
(0.188214 0.1274 -2.30763e-20)
(0.0132491 0.247751 2.78483e-20)
(0.0250148 0.25502 -8.79178e-20)
(0.0411565 0.26139 5.76005e-20)
(0.0563121 0.265566 1.04167e-19)
(0.0699802 0.266048 1.17803e-19)
(0.0827324 0.261685 0)
(0.0960887 0.25144 0)
(0.111164 0.23456 -2.26411e-20)
(0.128476 0.21134 -2.13711e-19)
(0.14766 0.184648 1.89423e-19)
(0.166348 0.157317 -5.28622e-19)
(0.181285 0.131318 0)
(0.0219796 0.262538 -1.2872e-20)
(0.0377388 0.274748 0)
(0.0538662 0.282431 0)
(0.0675086 0.286746 -9.0577e-20)
(0.0787128 0.287411 -8.7233e-20)
(0.0889049 0.283445 3.12121e-19)
(0.0997021 0.273975 -1.76956e-19)
(0.112457 0.25785 1.59922e-19)
(0.127285 0.233761 0)
(0.143618 0.202605 0)
(0.159374 0.169491 2.75357e-19)
(0.17152 0.138382 -5.97422e-21)
(0.0315041 0.275563 5.37705e-20)
(0.0497079 0.29082 1.45982e-20)
(0.0634292 0.294315 6.49166e-20)
(0.0734595 0.293818 7.85987e-20)
(0.0805366 0.29071 0)
(0.0873747 0.285502 -2.98737e-20)
(0.0960112 0.277962 -1.37027e-19)
(0.107539 0.266273 1.09826e-19)
(0.121563 0.248066 7.20692e-20)
(0.136526 0.221136 1.6961e-19)
(0.150503 0.186688 1.56139e-19)
(0.161187 0.151012 8.25374e-20)
(0.044283 0.2817 -3.29853e-20)
(0.057433 0.292786 -3.21983e-20)
(0.0618579 0.284942 -1.15494e-19)
(0.0659872 0.274893 1.56069e-19)
(0.0693519 0.265936 -5.3091e-20)
(0.0738009 0.259182 -1.08024e-19)
(0.0814524 0.253693 0)
(0.0929685 0.247327 0)
(0.10779 0.237698 -1.6474e-19)
(0.124179 0.221998 -1.52068e-19)
(0.139519 0.197809 -1.42594e-19)
(0.151218 0.166007 -8.88873e-20)
(0.0284503 0.281251 1.89329e-20)
(0.0399619 0.263595 2.05488e-20)
(0.0435649 0.245817 2.50684e-20)
(0.0455033 0.23116 -1.20015e-19)
(0.0480928 0.221075 -7.10736e-20)
(0.052671 0.214941 3.36844e-20)
(0.0604445 0.211137 0)
(0.0718793 0.207889 0)
(0.0867167 0.203537 0)
(0.103961 0.196505 0)
(0.12165 0.184826 -1.86368e-20)
(0.137128 0.166534 4.98733e-20)
(0.0848675 0.0671272 -1.66064e-19)
(0.0932095 0.0647215 8.04842e-19)
(0.103217 0.0605004 -1.6326e-19)
(0.113633 0.0537103 -1.15068e-18)
(0.121411 0.0464152 6.76733e-19)
(0.124329 0.0405001 -6.84254e-19)
(0.123668 0.0361382 3.3621e-19)
(0.121242 0.0296017 3.33194e-19)
(0.118457 0.0187072 8.33719e-20)
(0.118097 0.00417756 1.67351e-19)
(0.121896 -0.0101612 -2.51238e-19)
(0.126528 -0.015866 -2.07954e-20)
(0.114381 0.0911461 -5.66367e-19)
(0.133995 0.0876006 5.58383e-19)
(0.150912 0.0864015 -2.70648e-19)
(0.162012 0.0870946 2.70236e-19)
(0.166615 0.0878945 5.10426e-19)
(0.166057 0.0861453 -2.4751e-19)
(0.162281 0.0805085 -1.25754e-19)
(0.157821 0.0704367 0)
(0.152289 0.0532191 0)
(0.146711 0.0296161 1.49837e-19)
(0.142187 0.00441195 -1.1022e-19)
(0.141226 -0.00889677 7.00743e-23)
(0.158753 0.10189 -6.75297e-19)
(0.179243 0.0968519 4.31602e-19)
(0.193016 0.0948655 -2.13182e-19)
(0.199898 0.0951106 -4.02833e-19)
(0.202039 0.0965548 6.03895e-19)
(0.201429 0.0984688 2.13591e-19)
(0.19854 0.0981365 3.13411e-19)
(0.193883 0.0915352 -2.08278e-19)
(0.187439 0.0745223 0)
(0.178491 0.0448416 0)
(0.166051 0.00910596 0)
(0.155657 -0.0116431 0)
(0.189182 0.107485 7.26643e-19)
(0.206004 0.101305 -3.48091e-19)
(0.214223 0.0995589 0)
(0.216301 0.101389 -3.33369e-19)
(0.21583 0.105125 5.03176e-19)
(0.215349 0.108804 -6.86671e-19)
(0.215797 0.111312 3.3472e-19)
(0.215947 0.110943 -1.60364e-19)
(0.213634 0.101677 8.36015e-20)
(0.206397 0.0758828 0)
(0.191106 0.0323294 -5.17599e-20)
(0.170563 -0.00769009 -2.65546e-20)
(0.203187 0.109637 2.76807e-19)
(0.214307 0.102063 2.82647e-19)
(0.217034 0.0995153 -2.85594e-19)
(0.215474 0.0999003 -1.76637e-20)
(0.21393 0.100986 2.95252e-19)
(0.215013 0.102608 1.39693e-19)
(0.219048 0.105963 0)
(0.224733 0.11061 2.97869e-19)
(0.229257 0.112124 -2.18623e-19)
(0.228715 0.0992161 0)
(0.217848 0.0597596 8.55871e-20)
(0.192864 0.00252156 4.7514e-20)
(0.205159 0.109696 -4.9144e-19)
(0.211381 0.100722 0)
(0.210712 0.0976086 2.40317e-19)
(0.208035 0.0974174 -5.12554e-19)
(0.207212 0.0971564 0)
(0.209591 0.0958302 1.01566e-19)
(0.215573 0.0952159 1.27896e-19)
(0.224803 0.0988041 -2.47976e-19)
(0.235062 0.106616 1.19544e-19)
(0.242382 0.108621 -6.37416e-20)
(0.241621 0.0840474 2.99848e-20)
(0.222534 0.0202069 -3.94199e-20)
(0.199637 0.109338 -1.80299e-19)
(0.202985 0.0984646 1.88487e-20)
(0.201343 0.0944113 0)
(0.199571 0.0936888 -2.01337e-19)
(0.200576 0.0926167 2.07527e-19)
(0.204696 0.0896072 -2.5081e-19)
(0.211621 0.0855017 2.1484e-19)
(0.221686 0.0843299 0)
(0.234099 0.0909793 -9.64362e-20)
(0.246144 0.102543 -4.19112e-20)
(0.256691 0.0987085 -3.03077e-20)
(0.253365 0.0446037 4.71411e-20)
(0.189883 0.109919 1.46202e-19)
(0.192058 0.0961739 1.43542e-20)
(0.190915 0.0899999 1.41228e-20)
(0.190531 0.0880417 5.96559e-22)
(0.192984 0.0863104 -1.54834e-19)
(0.198526 0.082448 -2.89332e-20)
(0.206958 0.0766218 0)
(0.217774 0.0721044 -7.87439e-20)
(0.230237 0.0739161 9.60387e-20)
(0.242287 0.085989 1.39974e-19)
(0.259243 0.099301 -1.29817e-19)
(0.276511 0.0688172 -1.14244e-20)
(0.178293 0.112618 -2.44688e-21)
(0.180097 0.0948875 -1.24432e-20)
(0.1797 0.0853689 1.20222e-19)
(0.180386 0.0812859 1.11348e-19)
(0.183978 0.0786161 -2.28737e-19)
(0.190988 0.0741037 -1.32282e-19)
(0.201134 0.0669991 2.94505e-19)
(0.213112 0.0604766 -1.09537e-19)
(0.22578 0.0596816 0)
(0.236988 0.0675762 0)
(0.253154 0.0858094 2.60211e-20)
(0.285709 0.0822781 -7.79669e-21)
(0.167039 0.119879 -1.56222e-19)
(0.168749 0.0967443 -1.16898e-20)
(0.168816 0.0824189 1.35218e-19)
(0.17015 0.0748527 8.09312e-20)
(0.174713 0.0702329 -8.21116e-20)
(0.183161 0.0647409 0)
(0.194733 0.056753 -6.45892e-20)
(0.207487 0.0487433 6.61985e-20)
(0.220123 0.046048 0)
(0.231903 0.0523209 -2.74301e-20)
(0.248463 0.0664108 6.72979e-20)
(0.28245 0.0766573 2.63326e-20)
(0.157819 0.13281 8.68577e-20)
(0.160131 0.104548 0)
(0.160652 0.0842093 -1.26462e-19)
(0.1623 0.0713497 5.79162e-20)
(0.167261 0.0630232 -5.821e-20)
(0.176195 0.0554904 5.48852e-20)
(0.187891 0.0465532 -1.50557e-20)
(0.200052 0.0376034 7.64359e-20)
(0.211901 0.032876 -6.5777e-20)
(0.223703 0.0359935 -1.95356e-20)
(0.244042 0.0464805 -3.30631e-21)
(0.272586 0.0516985 -1.20129e-20)
(0.147969 0.141738 -1.30344e-19)
(0.153526 0.11476 0)
(0.155887 0.0908551 -5.83228e-20)
(0.158112 0.0725315 4.02975e-20)
(0.162652 0.0591261 -4.00605e-20)
(0.170343 0.0481572 -1.72136e-19)
(0.18006 0.0375937 -3.13245e-20)
(0.189695 0.027828 2.40496e-20)
(0.198855 0.0214092 5.92475e-20)
(0.20958 0.0198727 0)
(0.230679 0.0206859 0)
(0.252802 0.0101449 -5.8636e-21)
(0.132334 -0.0123436 -8.25403e-22)
(0.129557 -0.0207955 0)
(0.125094 -0.0278285 8.4525e-20)
(0.119608 -0.0344724 -8.59421e-20)
(0.113756 -0.0406641 -1.64612e-19)
(0.107746 -0.0463119 1.6247e-19)
(0.101558 -0.0513547 -1.64499e-19)
(0.0951279 -0.0558721 -6.5183e-19)
(0.0884145 -0.0603189 1.1148e-18)
(0.0814749 -0.0653606 1.52056e-19)
(0.074861 -0.0713013 0)
(0.0702697 -0.0778703 0)
(0.151095 0.00180833 -1.07933e-21)
(0.150334 -0.00112628 0)
(0.146761 -0.00867321 -1.49965e-19)
(0.142538 -0.0175872 4.39714e-19)
(0.137907 -0.0264752 -2.85028e-19)
(0.132988 -0.0348546 -7.2935e-19)
(0.128032 -0.0426988 5.75711e-19)
(0.123164 -0.0503415 -1.46984e-19)
(0.118068 -0.0583677 -2.93098e-19)
(0.112075 -0.0678713 -8.69279e-19)
(0.104592 -0.0808379 -2.79058e-19)
(0.0969203 -0.0973259 1.43033e-18)
(0.164148 -0.00686246 -1.6675e-20)
(0.163023 -0.010155 0)
(0.158937 -0.0171857 -5.93082e-20)
(0.154288 -0.0261881 1.25374e-19)
(0.149425 -0.0358202 -3.78731e-19)
(0.144398 -0.0456032 6.82332e-21)
(0.139476 -0.0555186 -5.06156e-19)
(0.134998 -0.0662053 5.08486e-19)
(0.130687 -0.0790494 0)
(0.125447 -0.094869 5.1651e-19)
(0.118326 -0.114365 2.56969e-19)
(0.109829 -0.137727 -7.36486e-19)
(0.181944 -0.00185945 -2.72328e-20)
(0.180743 -0.00384664 -1.66486e-19)
(0.177385 -0.0129327 1.18105e-19)
(0.174021 -0.0246198 2.23143e-19)
(0.170108 -0.0368395 -2.22752e-19)
(0.165533 -0.0492292 8.91894e-19)
(0.160451 -0.061994 -8.94112e-19)
(0.154833 -0.0758437 4.50817e-19)
(0.148279 -0.0929251 0)
(0.139779 -0.114735 6.50207e-19)
(0.129148 -0.140783 -4.20848e-19)
(0.117807 -0.168132 0)
(0.198026 -0.0038357 2.5278e-20)
(0.197507 -0.00611172 5.01409e-20)
(0.195188 -0.0164559 1.00279e-19)
(0.19293 -0.0296862 1.94892e-19)
(0.189563 -0.0435173 -1.95078e-19)
(0.184835 -0.0577925 -1.49753e-20)
(0.17878 -0.072933 -3.8945e-19)
(0.17134 -0.0894936 3.94503e-19)
(0.162438 -0.108887 -3.81789e-19)
(0.151165 -0.132674 1.77468e-19)
(0.137139 -0.159546 -3.33301e-19)
(0.122414 -0.185309 2.57597e-20)
(0.215163 -0.00419904 1.93901e-21)
(0.215719 -0.0084632 -4.14058e-20)
(0.215782 -0.0213789 0)
(0.21539 -0.036109 0)
(0.21289 -0.0508518 0)
(0.207914 -0.0658914 -5.03751e-19)
(0.200155 -0.0819298 3.33655e-19)
(0.189406 -0.0996964 1.50465e-20)
(0.176212 -0.120301 -9.23283e-21)
(0.160894 -0.144161 -5.99346e-19)
(0.143074 -0.169197 2.60147e-20)
(0.124829 -0.191084 2.7637e-19)
(0.23171 -0.00747124 2.04902e-20)
(0.23479 -0.0150275 0)
(0.23796 -0.0299121 1.31396e-19)
(0.239835 -0.0453149 0)
(0.238606 -0.0600698 1.2784e-19)
(0.23356 -0.0746738 0)
(0.224038 -0.0902224 -2.50806e-19)
(0.209652 -0.107478 5.36449e-19)
(0.191295 -0.127066 -1.41899e-20)
(0.170719 -0.149004 4.73687e-19)
(0.148694 -0.170821 2.42232e-19)
(0.126959 -0.188568 2.01384e-19)
(0.247637 -0.0131502 -4.16486e-20)
(0.254854 -0.0250234 -2.53871e-20)
(0.26111 -0.0412268 -1.56177e-20)
(0.265157 -0.0564653 2.15615e-19)
(0.265523 -0.0702478 -1.26601e-19)
(0.261008 -0.0831618 0)
(0.250481 -0.0966873 2.28248e-19)
(0.233293 -0.111967 -2.28295e-20)
(0.209847 -0.12937 -6.3873e-19)
(0.183216 -0.148415 1.59633e-19)
(0.156053 -0.16667 -1.66191e-19)
(0.130429 -0.18084 4.50293e-19)
(0.262426 -0.02179 4.80176e-20)
(0.27459 -0.0376633 5.04655e-20)
(0.282231 -0.0539101 -9.89163e-20)
(0.286499 -0.0676533 -1.85763e-19)
(0.287086 -0.0789587 2.33458e-19)
(0.282959 -0.0892496 -8.3641e-20)
(0.273194 -0.100132 0)
(0.256635 -0.112934 1.3772e-19)
(0.232077 -0.127779 -1.34372e-19)
(0.200724 -0.143903 -1.62997e-19)
(0.167775 -0.159125 -1.24861e-19)
(0.13709 -0.170603 1.89949e-19)
(0.275545 -0.0312458 -2.20287e-20)
(0.290833 -0.0496579 1.56201e-20)
(0.294346 -0.0635415 3.62138e-20)
(0.293806 -0.0736652 0)
(0.290614 -0.0808062 -8.47328e-20)
(0.285275 -0.0876862 5.86973e-20)
(0.277534 -0.0963507 -1.22811e-19)
(0.265531 -0.107863 -3.24902e-20)
(0.246879 -0.121765 -5.78776e-20)
(0.21951 -0.136514 0)
(0.184932 -0.150033 -8.88697e-20)
(0.149528 -0.160112 -1.66594e-19)
(0.281899 -0.0441968 -1.64089e-20)
(0.293041 -0.0574496 -6.01621e-20)
(0.285177 -0.0619171 -2.21229e-20)
(0.27494 -0.0661023 0)
(0.265758 -0.0694953 1.4307e-19)
(0.25882 -0.07396 -1.38625e-19)
(0.253215 -0.0816258 8.82315e-20)
(0.24674 -0.0931344 4.12798e-20)
(0.236951 -0.107866 1.63397e-19)
(0.221006 -0.124021 1.01079e-19)
(0.196573 -0.139003 0)
(0.164772 -0.150216 1.33148e-19)
(0.281529 -0.028643 -9.39407e-21)
(0.263751 -0.0398863 0)
(0.245876 -0.0433568 8.1178e-20)
(0.230974 -0.0452981 -3.73267e-20)
(0.220599 -0.0479341 -1.08261e-19)
(0.214247 -0.0525637 5.83314e-20)
(0.210331 -0.0603972 0)
(0.207051 -0.071871 -6.97378e-20)
(0.202721 -0.0866803 2.54757e-20)
(0.195734 -0.103782 -1.22761e-19)
(0.184089 -0.121192 8.36599e-20)
(0.165808 -0.136307 4.72759e-20)
(0.0676965 -0.0851051 3.24666e-19)
(0.065377 -0.093714 -8.0445e-19)
(0.0608797 -0.104189 -3.1499e-19)
(0.0537589 -0.115007 -6.65129e-19)
(0.0464826 -0.122817 1.35517e-18)
(0.0409092 -0.125502 -8.54011e-19)
(0.0367288 -0.12451 -1.62985e-19)
(0.0301285 -0.121725 0)
(0.0190959 -0.11863 8.31682e-20)
(0.00435718 -0.11803 8.35396e-20)
(-0.0101224 -0.121777 0)
(-0.0159086 -0.126466 0)
(0.0914019 -0.11651 -4.07809e-21)
(0.0882293 -0.136488 -2.64077e-19)
(0.0873481 -0.153296 -2.47142e-19)
(0.0882641 -0.163945 5.07657e-19)
(0.0891561 -0.168025 0)
(0.0873601 -0.167054 2.44862e-19)
(0.081671 -0.163052 1.34456e-19)
(0.0714597 -0.158418 0)
(0.0539737 -0.152732 0)
(0.0299845 -0.146962 -2.22081e-19)
(0.00440848 -0.142222 2.20219e-19)
(-0.00903761 -0.141136 0)
(0.102477 -0.161769 -2.32177e-19)
(0.0978106 -0.181849 2.18703e-19)
(0.096117 -0.194882 0)
(0.0964926 -0.201121 -1.90346e-19)
(0.0979738 -0.202867 0)
(0.0998945 -0.201969 1.97441e-19)
(0.0995293 -0.198966 -1.98033e-19)
(0.0929369 -0.194327 -2.06437e-19)
(0.0758027 -0.187859 0)
(0.0457941 -0.178798 -5.42777e-20)
(0.00951636 -0.166196 -1.30638e-19)
(-0.0116344 -0.155555 6.29571e-20)
(0.108209 -0.191788 0)
(0.102389 -0.207496 0)
(0.100852 -0.214667 0)
(0.102635 -0.216128 1.82935e-20)
(0.106152 -0.215491 3.39995e-19)
(0.109664 -0.215152 -3.38924e-19)
(0.112257 -0.215789 0)
(0.112021 -0.21609 0)
(0.102873 -0.213884 0)
(0.0770071 -0.206662 1.90181e-19)
(0.0330455 -0.19131 1.05015e-19)
(-0.00760923 -0.170553 -5.47779e-20)
(0.110314 -0.204586 -2.73272e-19)
(0.103153 -0.214395 2.64143e-19)
(0.100758 -0.216233 0)
(0.100967 -0.214405 -1.15828e-19)
(0.101746 -0.213019 0)
(0.103174 -0.214421 1.38601e-19)
(0.106469 -0.218759 1.08736e-20)
(0.111286 -0.224708 -1.40364e-19)
(0.113072 -0.229426 0)
(0.100344 -0.228981 -1.57612e-19)
(0.0607168 -0.218124 3.91258e-20)
(0.00278464 -0.192999 0)
(0.110192 -0.205323 2.62406e-19)
(0.101736 -0.210414 -4.77234e-19)
(0.0987939 -0.209253 2.39449e-19)
(0.0983802 -0.206722 -2.28062e-19)
(0.0977413 -0.206294 5.04997e-19)
(0.0961127 -0.209017 -3.93508e-19)
(0.095393 -0.21524 7.72928e-21)
(0.0991152 -0.224693 2.35275e-19)
(0.107243 -0.235151 1.12348e-19)
(0.10959 -0.242613 0)
(0.0851362 -0.241963 3.43436e-20)
(0.0207438 -0.222834 -3.8531e-20)
(0.109524 -0.198898 -3.91265e-19)
(0.0992698 -0.201441 4.19248e-19)
(0.0954322 -0.199675 -1.95408e-19)
(0.0944785 -0.198267 0)
(0.0930112 -0.199684 1.89453e-19)
(0.089683 -0.204082 4.10183e-19)
(0.0854289 -0.21119 -4.10624e-19)
(0.0843327 -0.221407 -1.14804e-19)
(0.0912581 -0.233981 -1.12208e-19)
(0.103207 -0.24615 4.15257e-20)
(0.0997811 -0.256897 5.16226e-20)
(0.0455006 -0.253772 -1.46178e-20)
(0.109699 -0.18859 -1.48403e-19)
(0.0966285 -0.19027 -1.13556e-19)
(0.0907563 -0.189201 1.59169e-19)
(0.0886568 -0.189209 -2.98324e-19)
(0.0865794 -0.192021 2.7907e-19)
(0.0824 -0.1978 -1.71611e-19)
(0.0763955 -0.206383 -6.62405e-20)
(0.0718998 -0.217291 2.48747e-19)
(0.0739105 -0.229862 -8.55341e-20)
(0.0862852 -0.241972 -9.43198e-20)
(0.100117 -0.25911 2.27396e-20)
(0.0699702 -0.276804 -2.15189e-20)
(0.111988 -0.176747 -1.06533e-19)
(0.094937 -0.178262 3.28454e-19)
(0.0858091 -0.178012 1.32969e-20)
(0.081719 -0.179064 0)
(0.0787882 -0.182984 -2.39065e-19)
(0.0739777 -0.190203 -1.07185e-19)
(0.066685 -0.200458 1.1982e-19)
(0.0601524 -0.212475 -7.03686e-20)
(0.0595102 -0.225204 0)
(0.0676374 -0.236456 0)
(0.0862128 -0.252737 0)
(0.0833939 -0.285761 1.05644e-20)
(0.118952 -0.165481 -7.77097e-20)
(0.0964333 -0.167005 0)
(0.0825369 -0.167221 0)
(0.0750814 -0.168876 1.40085e-19)
(0.0703121 -0.173732 0)
(0.0645775 -0.182349 9.21606e-21)
(0.0564077 -0.193979 5.25733e-20)
(0.048356 -0.206732 -1.29294e-19)
(0.0457525 -0.21941 0)
(0.0522281 -0.231243 -2.713e-20)
(0.0665779 -0.248015 1.22839e-20)
(0.0774106 -0.282342 1.52744e-21)
(0.131854 -0.156412 -5.34496e-20)
(0.104024 -0.158575 1.38878e-19)
(0.0840649 -0.159207 9.16078e-20)
(0.0713788 -0.161101 -8.94123e-20)
(0.0630061 -0.166293 5.75093e-20)
(0.05531 -0.175357 0)
(0.046215 -0.187087 1.04122e-19)
(0.0371943 -0.199243 -1.7812e-20)
(0.0324946 -0.211134 0)
(0.0357348 -0.222991 5.36145e-20)
(0.0464594 -0.243584 -2.91175e-20)
(0.0520679 -0.272396 1.39084e-20)
(0.141086 -0.146817 1.56632e-20)
(0.11428 -0.15223 -1.03901e-19)
(0.090603 -0.154643 -8.69282e-20)
(0.072436 -0.15702 -5.14293e-20)
(0.0590383 -0.161714 -3.95639e-20)
(0.0479698 -0.169505 0)
(0.0372773 -0.17927 -2.34334e-20)
(0.0274202 -0.188933 7.84649e-20)
(0.0209823 -0.198151 4.73939e-20)
(0.0195105 -0.208925 -4.39659e-20)
(0.02051 -0.230241 3.86955e-20)
(0.0102307 -0.252614 1.69556e-21)
(0.00949227 0.200611 -2.25068e-20)
(0.0129035 0.196484 6.72206e-21)
(0.0185049 0.188396 2.76382e-20)
(0.0243368 0.181672 8.90464e-20)
(0.0298453 0.177052 -2.70162e-20)
(0.0358122 0.174003 0)
(0.0434693 0.171745 -3.67414e-20)
(0.0536046 0.1692 6.6077e-20)
(0.0664141 0.165399 1.58185e-20)
(0.0815812 0.159919 -1.78861e-20)
(0.0982375 0.15275 4.72605e-20)
(0.114795 0.143507 1.53239e-20)
(0.0105082 0.154789 5.1451e-21)
(0.014129 0.1503 -2.24322e-20)
(0.0165263 0.146669 -1.52407e-21)
(0.0185411 0.143777 -2.28305e-20)
(0.0213193 0.141831 -3.89181e-20)
(0.025497 0.140703 1.01931e-19)
(0.0315963 0.13985 -3.33615e-20)
(0.0399364 0.138329 2.08101e-20)
(0.050469 0.135085 -6.21746e-20)
(0.0627889 0.129458 0)
(0.0761641 0.121622 -1.39944e-20)
(0.0897188 0.112444 9.29683e-21)
(0.00647795 0.115985 -9.3741e-21)
(0.00541168 0.112621 4.35002e-20)
(0.00526272 0.109886 0)
(0.00650752 0.108051 0)
(0.00904839 0.107348 -2.8628e-20)
(0.0128865 0.107558 -8.94382e-20)
(0.0182165 0.108068 -1.95136e-20)
(0.0253165 0.108005 0)
(0.0343291 0.106496 0)
(0.0451085 0.102925 0)
(0.0568983 0.0971045 1.28711e-20)
(0.0683025 0.0892119 -1.32974e-20)
(0.00273785 0.0774682 -7.82759e-21)
(0.000484523 0.0752386 -2.51399e-20)
(-0.000642771 0.0740674 2.40563e-20)
(-0.000266454 0.0741899 -3.07884e-20)
(0.00140308 0.0756404 5.78644e-20)
(0.0043023 0.0778433 9.34991e-21)
(0.00850043 0.0800039 5.99508e-20)
(0.014212 0.0812444 4.32307e-20)
(0.0216524 0.0808183 -3.38328e-20)
(0.0308879 0.0785101 5.34212e-21)
(0.0413702 0.0746261 -1.41963e-20)
(0.0514636 0.0690696 4.42286e-21)
(0.12944 0.130774 4.41643e-20)
(0.140525 0.113733 4.48129e-20)
(0.147712 0.0939895 6.7348e-20)
(0.152639 0.074683 0)
(0.1574 0.0578 1.63932e-20)
(0.163162 0.0433729 6.82258e-20)
(0.16956 0.0307197 3.16005e-20)
(0.175356 0.0199961 0)
(0.180244 0.0123967 0)
(0.18549 0.00781874 -9.43454e-21)
(0.19251 0.00390373 4.73005e-21)
(0.197955 -0.0108807 1.02931e-20)
(0.102855 0.10286 0)
(0.115388 0.0927518 -2.30112e-20)
(0.126642 0.0811354 -2.88867e-20)
(0.135921 0.0675679 -1.48844e-20)
(0.143204 0.0528945 -9.09542e-21)
(0.148848 0.0383329 3.53648e-21)
(0.152959 0.0249783 -6.35497e-20)
(0.155364 0.0138665 2.50535e-20)
(0.156323 0.00592635 2.92259e-20)
(0.156787 0.00102481 1.80307e-20)
(0.157565 -0.00234257 -3.62655e-20)
(0.157375 -0.00712049 4.59427e-21)
(0.0784573 0.0795256 0)
(0.0880193 0.0687473 4.75325e-21)
(0.0976062 0.0581957 2.32438e-21)
(0.107061 0.0481273 -1.32415e-20)
(0.115539 0.0379627 -8.92301e-21)
(0.122059 0.0272751 0)
(0.125933 0.0166412 2.90823e-20)
(0.127007 0.00734286 -5.42294e-20)
(0.125845 0.000620867 -2.203e-21)
(0.123525 -0.00318166 -7.52691e-21)
(0.121012 -0.00480741 2.37171e-20)
(0.118143 -0.0059265 -4.19747e-21)
(0.0596293 0.0610914 -1.1152e-21)
(0.0661212 0.0508382 -1.78393e-21)
(0.0720394 0.0394873 0)
(0.0777665 0.0285582 -7.19286e-21)
(0.0830892 0.0190625 2.82525e-20)
(0.0874071 0.010832 -1.19158e-20)
(0.0899427 0.00369642 1.18887e-20)
(0.0901869 -0.00200283 4.74318e-20)
(0.0883299 -0.00560176 -3.27202e-20)
(0.0852086 -0.00679556 0)
(0.0817991 -0.00602655 -1.75824e-20)
(0.0786026 -0.00437357 3.66702e-21)
(0.200139 -0.00959952 7.84089e-21)
(0.195527 -0.0127407 4.08322e-20)
(0.187548 -0.0181394 -4.50656e-20)
(0.180762 -0.0238929 0)
(0.176086 -0.0294547 5.68773e-20)
(0.17301 -0.0355486 -5.15351e-20)
(0.170759 -0.0433444 -3.64247e-20)
(0.168252 -0.0535668 3.63502e-20)
(0.164514 -0.0663635 -8.54845e-20)
(0.159132 -0.0814029 5.76117e-20)
(0.152116 -0.0978388 -4.48311e-20)
(0.143052 -0.114141 -4.24643e-20)
(0.153829 -0.0101031 4.8421e-24)
(0.149223 -0.0136414 -2.38599e-20)
(0.145646 -0.0160744 0)
(0.142824 -0.0181208 4.14862e-20)
(0.140933 -0.0210254 -5.72725e-20)
(0.139851 -0.0253885 1.89882e-20)
(0.139053 -0.0316632 0)
(0.137608 -0.0401019 2.08938e-20)
(0.134457 -0.0506113 -5.68861e-21)
(0.128925 -0.0627725 -7.98258e-20)
(0.121177 -0.0758809 1.09584e-20)
(0.112075 -0.0891469 0)
(0.114499 -0.00600709 4.61911e-21)
(0.111156 -0.00502313 -2.27656e-20)
(0.10867 -0.00494347 0)
(0.107112 -0.00620879 -7.19559e-20)
(0.106593 -0.00888175 5.02324e-20)
(0.106924 -0.0129392 3.98244e-20)
(0.107531 -0.0184871 4.57453e-20)
(0.107586 -0.0257182 3.52666e-20)
(0.106231 -0.0347181 0)
(0.102819 -0.0453196 2.05793e-20)
(0.097084 -0.0567798 -1.08663e-20)
(0.0891407 -0.0678094 5.92542e-21)
(0.0757525 -0.00223908 -7.75837e-21)
(0.073672 -0.000214207 -7.01852e-21)
(0.0728175 0.00076199 7.94769e-21)
(0.0733432 0.000364188 3.15117e-20)
(0.0750453 -0.00142658 0)
(0.0773833 -0.00453421 -9.84057e-20)
(0.0796138 -0.00894461 -6.0396e-20)
(0.0809337 -0.014785 -1.78034e-21)
(0.0806754 -0.0222173 -1.3179e-20)
(0.0786587 -0.031292 0)
(0.0750949 -0.0414767 1.01107e-20)
(0.0696218 -0.0512173 -5.5078e-21)
(0.130458 -0.128591 -2.79247e-20)
(0.113514 -0.139611 3.2759e-20)
(0.0938793 -0.146825 -3.13344e-20)
(0.074656 -0.151816 -3.79767e-20)
(0.0577531 -0.156647 -2.8458e-20)
(0.0432286 -0.162473 5.93529e-20)
(0.0304476 -0.168929 -3.10243e-20)
(0.0196118 -0.174784 0)
(0.011953 -0.179755 -4.30749e-20)
(0.0073943 -0.185074 -1.96273e-20)
(0.00361957 -0.192331 -2.73422e-20)
(-0.011003 -0.197848 5.01279e-21)
(0.102577 -0.102141 -7.88547e-21)
(0.0926019 -0.114756 8.3331e-21)
(0.0811877 -0.126167 2.05765e-20)
(0.0677585 -0.135551 4.98175e-20)
(0.0530578 -0.142888 -1.44364e-20)
(0.0383626 -0.14857 0)
(0.0248331 -0.152722 0)
(0.0135577 -0.155177 0)
(0.00550539 -0.156202 0)
(0.000561439 -0.156737 1.78245e-20)
(-0.0027265 -0.157649 0)
(-0.00740775 -0.157642 9.32309e-21)
(0.0793386 -0.077798 7.52057e-21)
(0.0685492 -0.0875229 -1.22236e-21)
(0.0582332 -0.09738 2.09988e-21)
(0.0484432 -0.107038 2.85184e-21)
(0.0383504 -0.11566 -7.75702e-21)
(0.0275617 -0.12229 0)
(0.0167259 -0.126241 -9.37404e-21)
(0.00720246 -0.127369 9.3588e-21)
(0.000293254 -0.126247 0)
(-0.00362373 -0.123964 0)
(-0.00525998 -0.121515 0)
(-0.0063314 -0.118757 -4.22383e-21)
(0.0612828 -0.0592403 1.50768e-21)
(0.0505258 -0.0659375 2.03226e-21)
(0.0392026 -0.072084 0)
(0.0286746 -0.0779349 0)
(0.0194006 -0.0833891 -1.19843e-20)
(0.011191 -0.0878783 -1.85536e-20)
(0.00392575 -0.0905766 2.61074e-20)
(-0.00197717 -0.0909383 9.84151e-21)
(-0.00578152 -0.0891438 -3.12338e-20)
(-0.00712549 -0.0860428 0)
(-0.00641634 -0.082641 0)
(-0.0047534 -0.0794605 -3.78412e-24)
)
;

boundaryField
{
    rotor
    {
        type            movingWallVelocity;
        value           nonuniform List<vector> 
96
(
(0.00410304 0.125504 1.56125e-16)
(0.0123026 0.124967 -1.10826e-21)
(0.0204495 0.123895 -4.68373e-16)
(0.0285089 0.122292 2.21652e-21)
(0.0364461 0.120166 -3.1225e-16)
(0.0442273 0.117525 -1.56125e-16)
(0.0518191 0.114381 -1.5613e-16)
(0.059189 0.110747 1.56125e-16)
(0.0663054 0.106638 -1.56125e-16)
(0.0731379 0.102073 1.56125e-16)
(0.0796573 0.0970714 1.56125e-16)
(0.0858355 0.0916537 1.56125e-16)
(0.0916461 0.0858436 1.5613e-16)
(0.0970643 0.0796658 -1.56121e-16)
(0.102067 0.0731469 -4.43304e-21)
(0.106632 0.0663148 1.56121e-16)
(0.110741 0.0591987 -1.56125e-16)
(0.114376 0.0518292 -3.1225e-16)
(0.117521 0.0442376 0)
(0.120163 0.0364567 0)
(0.12229 0.0285196 2.21652e-21)
(0.123893 0.0204604 -1.56125e-16)
(0.124966 0.0123136 -3.12251e-16)
(0.125504 0.00411411 -3.12251e-16)
(0.125504 -0.00410304 -5.5413e-22)
(0.124967 -0.0123026 -1.56125e-16)
(0.123895 -0.0204495 0)
(0.122292 -0.0285089 -2.21652e-21)
(0.120166 -0.0364461 0)
(0.117525 -0.0442273 0)
(0.114381 -0.0518191 -1.5613e-16)
(0.110747 -0.059189 -1.5613e-16)
(0.106638 -0.0663054 1.5613e-16)
(0.102073 -0.0731379 -3.12255e-16)
(0.0970714 -0.0796573 -1.56125e-16)
(0.0916537 -0.0858355 -1.56125e-16)
(0.0858436 -0.0916461 -3.1225e-16)
(0.0796658 -0.0970643 -1.5613e-16)
(0.0731469 -0.102067 -1.56125e-16)
(0.0663148 -0.106632 1.56125e-16)
(0.0591987 -0.110741 0)
(0.0518292 -0.114376 -1.5613e-16)
(0.0442376 -0.117521 0)
(0.0364567 -0.120163 -3.1225e-16)
(0.0285196 -0.12229 -3.12248e-16)
(0.0204604 -0.123893 1.56127e-16)
(0.0123136 -0.124966 -3.1225e-16)
(0.00411411 -0.125504 1.56125e-16)
(0.00232421 0.133491 1.56125e-16)
(0.00259765 0.149196 1.56125e-16)
(0.00287109 0.164901 1.56125e-16)
(0.00314452 0.180605 1.56125e-16)
(0.00341796 0.19631 1.56125e-16)
(0.0036914 0.212015 1.56125e-16)
(0.00396483 0.22772 3.1225e-16)
(0.00423827 0.243425 1.56125e-16)
(0.00451171 0.25913 1.56125e-16)
(0.00478515 0.274834 3.1225e-16)
(0.00505858 0.290539 1.56125e-16)
(0.00533202 0.306244 1.56125e-16)
(0.133491 -0.00232421 -1.56125e-16)
(0.149196 -0.00259765 0)
(0.164901 -0.00287109 -1.56125e-16)
(0.180605 -0.00314452 0)
(0.19631 -0.00341796 1.57842e-37)
(0.212015 -0.0036914 1.56125e-16)
(0.22772 -0.00396483 -1.56125e-16)
(0.243425 -0.00423827 0)
(0.25913 -0.00451171 1.14794e-37)
(0.274834 -0.00478514 4.0178e-37)
(0.290539 -0.00505858 -1.56125e-16)
(0.306244 -0.00533202 1.56125e-16)
(0.133491 -0.00232421 -3.1225e-16)
(0.149196 -0.00259765 -1.56125e-16)
(0.164901 -0.00287109 -1.56125e-16)
(0.180605 -0.00314452 0)
(0.19631 -0.00341796 -1.56125e-16)
(0.212015 -0.0036914 0)
(0.22772 -0.00396483 -3.1225e-16)
(0.243425 -0.00423827 -1.56125e-16)
(0.25913 -0.00451171 0)
(0.274834 -0.00478514 -3.1225e-16)
(0.290539 -0.00505858 -1.56125e-16)
(0.306244 -0.00533202 2.86986e-38)
(-0.00232421 -0.133491 1.56125e-16)
(-0.00259765 -0.149196 -4.68375e-16)
(-0.00287109 -0.164901 1.56125e-16)
(-0.00314452 -0.180605 0)
(-0.00341796 -0.19631 -1.56125e-16)
(-0.0036914 -0.212015 -1.56125e-16)
(-0.00396484 -0.22772 -1.56125e-16)
(-0.00423827 -0.243425 2.72637e-37)
(-0.00451171 -0.25913 -3.1225e-16)
(-0.00478515 -0.274834 -1.56125e-16)
(-0.00505858 -0.290539 -3.1225e-16)
(-0.00533202 -0.306244 -1.56125e-16)
)
;
    }
    stator
    {
        type            movingWallVelocity;
        value           nonuniform 0();
    }
    AMI1
    {
        type            cyclicAMI;
        value           nonuniform List<vector> 
48
(
(0.00159602 0.058642 1.05765e-21)
(-0.00143062 0.0578333 -2.22303e-20)
(-0.00312376 0.0580447 -7.8741e-21)
(-0.00294554 0.0600381 -1.55146e-20)
(-0.00140893 0.0628865 7.1517e-20)
(0.00118153 0.0661286 1.21891e-20)
(0.00483038 0.0690849 -6.34948e-21)
(0.00985061 0.0710834 2.17409e-20)
(0.0165977 0.071323 -2.98768e-20)
(0.0255552 0.0696855 6.13848e-21)
(0.0363869 0.0669499 -1.06281e-20)
(0.045337 0.0622439 -3.02432e-21)
(0.0516531 0.0552398 1.18572e-22)
(0.0581092 0.045595 -4.83766e-22)
(0.0631896 0.0342933 -3.8384e-21)
(0.0678116 0.0231977 3.25871e-21)
(0.071372 0.0132281 1.44971e-20)
(0.0737074 0.00482123 2.95298e-21)
(0.0744325 -0.00193252 2.84824e-20)
(0.0732927 -0.00676515 4.55351e-20)
(0.0705002 -0.00926787 -2.98854e-20)
(0.0667871 -0.00932758 -9.0547e-24)
(0.0630391 -0.00741179 -8.85226e-21)
(0.0598259 -0.00448536 1.10905e-20)
(0.0575357 -0.00118514 1.07434e-20)
(0.056647 0.00161579 -1.35032e-20)
(0.057334 0.00306774 3.99473e-21)
(0.0594322 0.00287666 1.58654e-20)
(0.0624494 0.00124614 -2.40061e-20)
(0.0657494 -0.00152001 -8.68375e-20)
(0.068717 -0.00534504 -7.8146e-20)
(0.0707198 -0.0104521 1.00231e-20)
(0.0710319 -0.017142 -2.50529e-20)
(0.0695794 -0.0258802 -3.74245e-21)