/*--------------------------------*- C++ -*----------------------------------*\
| =========                 |                                                 |
| \\      /  F ield         | OpenFOAM: The Open Source CFD Toolbox           |
|  \\    /   O peration     | Version:  v1806                                 |
|   \\  /    A nd           | Web:      www.OpenFOAM.com                      |
|    \\/     M anipulation  |                                                 |
\*---------------------------------------------------------------------------*/
FoamFile
{
    version     2.0;
    format      ascii;
    class       surfaceScalarField;
    location    "1";
    object      meshPhi;
}
// * * * * * * * * * * * * * * * * * * * * * * * * * * * * * * * * * * * * * //

dimensions      [0 3 -1 0 0 0 0];
oriented        oriented;


internalField   nonuniform List<scalar> 
1460
(
-3.33753e-06
-4.20134e-15
-3.33753e-06
2.38049e-15
-3.33753e-06
1.62755e-15
-3.33753e-06
-4.35053e-15
-3.33753e-06
9.27617e-15
-3.33753e-06
1.37853e-15
-3.33753e-06
-5.95157e-15
-3.33753e-06
-1.28966e-15
-3.33753e-06
6.47311e-15
-3.33753e-06
-1.18776e-15
-3.33753e-06
-7.84858e-16
-6.76318e-15
-3.33753e-06
-3.73019e-06
-1.69266e-15
-3.73019e-06
-5.79143e-15
-3.73019e-06
5.70406e-15
-3.73019e-06
2.91294e-15
-3.73019e-06
-1.564e-15
-3.73019e-06
4.81756e-15
-3.73019e-06
-1.2766e-14
-3.73019e-06
7.85651e-15
-3.73019e-06
3.2474e-15
-3.73019e-06
-1.42616e-15
-3.73019e-06
-4.04143e-15
3.49015e-15
-3.73019e-06
-4.12284e-06
1.41111e-15
-4.12284e-06
1.47822e-15
-4.12284e-06
-6.90617e-15
-4.12284e-06
1.20628e-14
-4.12284e-06
-1.53337e-14
-4.12284e-06
1.01303e-14
-4.12284e-06
8.99963e-16
-4.12284e-06
-3.51153e-15
-4.12284e-06
-7.67333e-16
-4.12284e-06
-1.68586e-15
-4.12284e-06
3.45943e-15
4.55314e-15
-4.12284e-06
-4.51549e-06
5.10999e-15
-4.51549e-06
-8.51106e-15
-4.51549e-06
-2.85916e-15
-4.51549e-06
4.25064e-15
-4.51549e-06
4.4736e-15
-4.51549e-06
-2.24698e-15
-4.51549e-06
-7.23556e-15
-4.51549e-06
-1.27346e-15
-4.51549e-06
3.85259e-15
-4.51549e-06
-1.96683e-15
-4.51549e-06
-2.93214e-17
4.84577e-15
-4.51549e-06
-4.90814e-06
9.40393e-15
-4.90814e-06
5.55717e-17
-4.90814e-06
-1.86745e-14
-4.90814e-06
1.50741e-14
-4.90814e-06
-1.1242e-14
-4.90814e-06
2.49369e-15
-4.90814e-06
1.06022e-14
-4.90814e-06
-1.5743e-14
-4.90814e-06
-9.54826e-16
-4.90814e-06
-2.26909e-15
-4.90814e-06
9.31049e-15
6.09336e-15
-4.90814e-06
-5.30079e-06
-7.79221e-15
-5.30079e-06
1.0621e-14
-5.30079e-06
6.62189e-15
-5.30079e-06
-1.57259e-14
-5.30079e-06
1.12144e-14
-5.30079e-06
-1.14155e-14
-5.30079e-06
1.83087e-15
-5.30079e-06
-2.9762e-15
-5.30079e-06
5.66491e-15
-5.30079e-06
2.63587e-15
-5.30079e-06
2.64298e-15
-8.07741e-15
-5.30079e-06
-5.69344e-06
-3.88553e-15
-5.69344e-06
-1.27491e-15
-5.69344e-06
1.24788e-14
-5.69344e-06
-4.15952e-15
-5.69344e-06
-1.09958e-15
-5.69344e-06
9.16274e-15
-5.69344e-06
1.4736e-15
-5.69344e-06
-1.9762e-14
-5.69344e-06
1.97408e-14
-5.69344e-06
-2.58233e-15
-5.69344e-06
-1.62641e-14
7.85283e-15
-5.69344e-06
-6.08609e-06
6.16234e-16
-6.08609e-06
1.00566e-14
-6.08609e-06
-5.37085e-15
-6.08609e-06
-1.82665e-14
-6.08609e-06
3.635e-15
-6.08609e-06
1.74543e-14
-6.08609e-06
-9.3846e-15
-6.08609e-06
-5.10495e-15
-6.08609e-06
1.47449e-14
-6.08609e-06
-2.92474e-15
-6.08609e-06
-5.85026e-15
-8.35453e-15
-6.08609e-06
-6.47874e-06
5.71308e-15
-6.47874e-06
-3.6568e-15
-6.47874e-06
3.95217e-16
-6.47874e-06
-7.09967e-15
-6.47874e-06
7.77241e-15
-6.47874e-06
1.42258e-15
-6.47874e-06
-2.16123e-14
-6.47874e-06
1.15491e-14
-6.47874e-06
8.95995e-15
-6.47874e-06
-3.28847e-15
-6.47874e-06
6.00092e-15
-7.77326e-15
-6.47874e-06
-6.8714e-06
1.1405e-14
-6.8714e-06
-1.90574e-14
-6.8714e-06
7.43075e-15
-6.8714e-06
1.22807e-14
-6.8714e-06
-2.17177e-14
-6.8714e-06
1.0147e-14
-6.8714e-06
2.64964e-15
-6.8714e-06
-7.65942e-15
-6.8714e-06
2.3861e-15
-6.8714e-06
-3.67352e-15
-6.8714e-06
6.49059e-16
-8.41246e-15
-6.8714e-06
-7.26405e-06
-1.20855e-14
-7.26405e-06
2.32184e-14
-7.26405e-06
-1.49231e-14
-7.26405e-06
-2.10517e-15
-7.26405e-06
1.98628e-14
-7.26405e-06
-1.80185e-14
-7.26405e-06
-1.02139e-14
-7.26405e-06
1.08849e-14
-7.26405e-06
-4.97679e-15
-7.26405e-06
1.9595e-14
-7.26405e-06
-9.33567e-15
1.34545e-14
-7.26405e-06
-7.6567e-06
-6.77063e-15
-7.6567e-06
7.9776e-15
-7.6567e-06
-8.32706e-15
-7.6567e-06
1.16517e-14
-7.6567e-06
-4.2366e-15
-7.6567e-06
-9.36596e-15
-7.6567e-06
1.76188e-14
-7.6567e-06
-2.63458e-14
-7.6567e-06
2.5775e-15
-7.6567e-06
2.04135e-14
-7.6567e-06
-1.61657e-14
-7.6567e-06
1.39606e-14
-3.33753e-06
2.84084e-15
-3.33753e-06
-3.12067e-15
-3.33753e-06
-2.68426e-15
-3.33753e-06
1.94661e-15
-3.33753e-06
2.34663e-15
-3.33753e-06
2.07064e-15
-3.33753e-06
-4.32459e-15
-3.33753e-06
3.88452e-16
-3.33753e-06
9.02989e-16
-3.33753e-06
8.5857e-15
-3.33753e-06
-6.06266e-15
5.03316e-16
-3.73019e-06
2.50742e-15
-3.73019e-06
-1.09254e-15
-3.73019e-06
-3.7115e-15
-3.73019e-06
5.23507e-15
-3.73019e-06
-1.24512e-14
-3.73019e-06
8.77402e-15
-3.73019e-06
5.89195e-15
-3.73019e-06
-2.05213e-15
-3.73019e-06
-7.55042e-15
-3.73019e-06
5.23835e-15
-3.73019e-06
1.39371e-15
-2.92986e-15
-4.12284e-06
2.04419e-15
-4.12284e-06
-9.10679e-15
-4.12284e-06
-3.96559e-15
-4.12284e-06
1.0098e-14
-4.12284e-06
-1.54259e-15
-4.12284e-06
-5.95225e-15
-4.12284e-06
5.08806e-15
-4.12284e-06
-6.32012e-15
-4.12284e-06
-5.7944e-16
-4.12284e-06
1.25627e-15
-4.12284e-06
1.01376e-14
-6.94786e-15
-4.51549e-06
2.3513e-15
-4.51549e-06
5.34203e-15
-4.51549e-06
-5.20087e-15
-4.51549e-06
5.27903e-15
-4.51549e-06
-5.32785e-15
-4.51549e-06
6.00558e-16
-4.51549e-06
-3.78746e-15
-4.51549e-06
7.48408e-15
-4.51549e-06
-1.04088e-14
-4.51549e-06
-3.5451e-15
-4.51549e-06
1.63899e-15
7.16375e-15
-4.90814e-06
-1.36475e-14
-4.90814e-06
1.17959e-14
-4.90814e-06
-5.49594e-15
-4.90814e-06
-6.83498e-15
-4.90814e-06
7.96177e-15
-4.90814e-06
5.22115e-16
-4.90814e-06
-3.12423e-15
-4.90814e-06
1.2095e-15
-4.90814e-06
-2.67392e-15
-4.90814e-06
1.0811e-14
-4.90814e-06
-7.89862e-15
3.22489e-15
-5.30079e-06
-5.78092e-17
-5.30079e-06
2.64237e-15
-5.30079e-06
6.44645e-15
-5.30079e-06
-3.0597e-15
-5.30079e-06
-6.67254e-15
-5.30079e-06
8.83856e-15
-5.30079e-06
2.32177e-15
-5.30079e-06
1.497e-15
-5.30079e-06
-1.47147e-14
-5.30079e-06
6.33673e-15
-5.30079e-06
2.44499e-15
-1.26795e-15
-5.69344e-06
-1.03555e-15
-5.69344e-06
6.39344e-15
-5.69344e-06
-7.27533e-15
-5.69344e-06
2.63914e-15
-5.69344e-06
9.42403e-15
-5.69344e-06
-1.18079e-14
-5.69344e-06
2.85981e-15
-5.69344e-06
-5.5983e-15
-5.69344e-06
-5.84008e-15
-5.69344e-06
3.3736e-16
-5.69344e-06
1.46605e-14
-6.4381e-15
-6.08609e-06
-3.26721e-15
-6.08609e-06
1.4215e-14
-6.08609e-06
6.37124e-15
-6.08609e-06
-4.83423e-15
-6.08609e-06
-5.92229e-15
-6.08609e-06
-1.63859e-15
-6.08609e-06
3.44745e-15
-6.08609e-06
8.6682e-15
-6.08609e-06
-1.79642e-14
-6.08609e-06
1.87205e-14
-6.08609e-06
3.40321e-15
-1.24498e-14
-6.47874e-06
-4.57482e-15
-6.47874e-06
1.91407e-14
-6.47874e-06
-9.30374e-15
-6.47874e-06
1.57004e-15
-6.47874e-06
-1.14562e-14
-6.47874e-06
8.30869e-15
-6.47874e-06
-1.47156e-14
-6.47874e-06
1.17031e-14
-6.47874e-06
-9.911e-15
-6.47874e-06
1.29268e-14
-6.47874e-06
-9.72937e-15
7.65826e-15
-6.8714e-06
1.39782e-14
-6.8714e-06
-1.50976e-14
-6.8714e-06
2.84758e-14
-6.8714e-06
-1.7291e-14
-6.8714e-06
-7.24975e-15
-6.8714e-06
8.61958e-15
-6.8714e-06
1.1636e-14
-6.8714e-06
-8.36013e-16
-6.8714e-06
-2.07688e-14
-6.8714e-06
5.9448e-15
-6.8714e-06
4.33226e-15
1.82836e-15
-7.26405e-06
-3.00155e-14
-7.26405e-06
1.10119e-14
-7.26405e-06
-1.27187e-14
-7.26405e-06
1.40561e-14
-7.26405e-06
1.33402e-14
-7.26405e-06
-6.43351e-15
-7.26405e-06
1.33406e-15
-7.26405e-06
-7.68827e-15
-7.26405e-06
-1.16671e-14
-7.26405e-06
2.80783e-14
-7.26405e-06
-1.01509e-14
-4.5042e-15
-7.6567e-06
-1.06817e-14
-7.6567e-06
-2.78122e-15
-7.6567e-06
4.27646e-15
-7.6567e-06
5.23425e-15
-7.6567e-06
7.96724e-15
-7.6567e-06
-6.96981e-15
-7.6567e-06
-8.1967e-15
-7.6567e-06
2.5182e-14
-7.6567e-06
-3.18276e-14
-7.6567e-06
2.13635e-14
-7.6567e-06
4.95942e-15
-1.1514e-14
-3.33753e-06
6.20585e-15
-3.33753e-06
-1.39235e-15
-3.33753e-06
-1.89793e-15
-3.33753e-06
-8.07383e-15
-3.33753e-06
6.00987e-15
-3.33753e-06
-1.69607e-15
-3.33753e-06
3.85213e-15
-3.33753e-06
-7.92562e-15
-3.33753e-06
1.02074e-14
-3.33753e-06
-4.52099e-15
-3.33753e-06
6.52401e-15
-1.06855e-14
-3.33753e-06
-3.73019e-06
-6.31516e-15
-3.73019e-06
5.17754e-15
-3.73019e-06
1.27986e-15
-3.73019e-06
-1.31802e-15
-3.73019e-06
-6.09148e-15
-3.73019e-06
9.20394e-16
-3.73019e-06
-1.64637e-15
-3.73019e-06
3.26185e-15
-3.73019e-06
-1.32924e-15
-3.73019e-06
6.49527e-15
-3.73019e-06
1.18033e-15
-8.67997e-16
-3.73019e-06
-4.12284e-06
-4.12562e-15
-4.12284e-06
-4.0348e-15
-4.12284e-06
4.90987e-15
-4.12284e-06
6.96838e-15
-4.12284e-06
-4.38687e-15
-4.12284e-06
2.37731e-15
-4.12284e-06
-5.18211e-15
-4.12284e-06
5.39934e-15
-4.12284e-06
2.23969e-15
-4.12284e-06
-7.3373e-15
-4.12284e-06
-2.18793e-15
-1.06598e-15
-4.12284e-06
-4.51549e-06
-1.54643e-15
-4.51549e-06
3.79304e-15
-4.51549e-06
-9.50939e-15
-4.51549e-06
-1.90749e-15
-4.51549e-06
1.64313e-14
-4.51549e-06
-8.28146e-15
-4.51549e-06
3.03301e-15
-4.51549e-06
9.67511e-16
-4.51549e-06
-2.29064e-15
-4.51549e-06
6.8205e-15
-4.51549e-06
-6.97249e-15
-2.12728e-15
-4.51549e-06
-4.90814e-06
1.52511e-15
-4.90814e-06
-7.52301e-15
-4.90814e-06
1.4129e-14
-4.90814e-06
-1.21432e-14
-4.90814e-06
4.48227e-15
-4.90814e-06
-1.25135e-14
-4.90814e-06
2.19726e-15
-4.90814e-06
3.81859e-15
-4.90814e-06
2.59894e-15
-4.90814e-06
7.25054e-15
-4.90814e-06
1.78873e-15
-1.46075e-15
-4.90814e-06
-5.30079e-06
5.23288e-15
-5.30079e-06
1.31488e-15
-5.30079e-06
-2.12742e-15
-5.30079e-06
-2.36322e-15
-5.30079e-06
2.11749e-15
-5.30079e-06
-1.94418e-16
-5.30079e-06
-7.81445e-15
-5.30079e-06
-1.63074e-15
-5.30079e-06
3.34252e-15
-5.30079e-06
-1.17931e-14
-5.30079e-06
1.0875e-14
-1.7146e-15
-5.30079e-06
-5.69344e-06
9.29951e-15
-5.69344e-06
-1.17054e-14
-5.69344e-06
2.49609e-15
-5.69344e-06
8.33756e-15
-5.69344e-06
-1.47607e-14
-5.69344e-06
6.99239e-15
-5.69344e-06
1.29051e-14
-5.69344e-06
-9.69723e-15
-5.69344e-06
-1.09594e-14
-5.69344e-06
5.89557e-15
-5.69344e-06
5.91965e-15
-3.04258e-15
-5.69344e-06
-6.08609e-06
-1.1053e-14
-6.08609e-06
2.3352e-14
-6.08609e-06
-1.71583e-14
-6.08609e-06
-5.08657e-15
-6.08609e-06
1.5461e-14
-6.08609e-06
-1.82736e-14
-6.08609e-06
1.24257e-14
-6.08609e-06
5.63091e-15
-6.08609e-06
2.89262e-15
-6.08609e-06
-1.47762e-14
-6.08609e-06
1.78125e-14
-1.99762e-14
-6.08609e-06
-6.47874e-06
-7.5587e-15
-6.47874e-06
9.60014e-15
-6.47874e-06
-1.1949e-14
-6.47874e-06
8.46667e-15
-6.47874e-06
-4.94584e-15
-6.47874e-06
1.34128e-14
-6.47874e-06
8.4002e-16
-6.47874e-06
-1.4341e-14
-6.47874e-06
9.71708e-15
-6.47874e-06
5.30209e-15
-6.47874e-06
-7.6449e-15
-2.51663e-15
-6.47874e-06
-6.8714e-06
-3.57187e-15
-6.8714e-06
-5.5722e-15
-6.8714e-06
2.08063e-14
-6.8714e-06
-3.52431e-15
-6.8714e-06
-1.09661e-15
-6.8714e-06
-1.47467e-14
-6.8714e-06
2.47377e-14
-6.8714e-06
-2.25686e-14
-6.8714e-06
1.09877e-14
-6.8714e-06
-1.95877e-14
-6.8714e-06
3.41082e-15
1.71439e-14
-6.8714e-06
-7.26405e-06
1.10239e-15
-7.26405e-06
6.89787e-15
-7.26405e-06
-1.57504e-15
-7.26405e-06
-1.64595e-14
-7.26405e-06
-5.81265e-15
-7.26405e-06
3.07169e-14
-7.26405e-06
-1.44688e-14
-7.26405e-06
6.07019e-15
-7.26405e-06
-6.8201e-15
-7.26405e-06
2.79673e-15
-7.26405e-06
-3.66029e-15
1.65695e-14
-7.26405e-06
-7.6567e-06
6.08417e-15
-7.6567e-06
-1.02247e-14
-7.6567e-06
4.7094e-15
-7.6567e-06
-8.52404e-15
-7.6567e-06
6.61173e-15
-7.6567e-06
1.68572e-16
-7.6567e-06
1.12677e-14
-7.6567e-06
-1.81479e-15
-7.6567e-06
-1.5069e-14
-7.6567e-06
2.73104e-15
-7.6567e-06
1.05198e-14
-7.6567e-06
-2.56837e-14
-3.33753e-06
1.08536e-14
-3.33753e-06
-1.37427e-14
-3.33753e-06
-7.49756e-17
-3.33753e-06
7.12054e-15
-3.33753e-06
-5.77949e-15
-3.33753e-06
1.11269e-14
-3.33753e-06
-6.83097e-15
-3.33753e-06
3.17894e-16
-3.33753e-06
3.31774e-15
-3.33753e-06
-6.85135e-16
-3.33753e-06
1.47927e-15
-3.70968e-15
-3.73019e-06
-3.98e-16
-3.73019e-06
-1.08633e-15
-3.73019e-06
-8.12288e-16
-3.73019e-06
3.13085e-15
-3.73019e-06
3.93247e-15
-3.73019e-06
-1.12725e-15
-3.73019e-06
2.987e-15
-3.73019e-06
-2.85827e-15
-3.73019e-06
-4.37303e-15
-3.73019e-06
-4.35494e-15
-3.73019e-06
1.04883e-14
-6.27558e-15
-4.12284e-06
1.10646e-14
-4.12284e-06
-9.09996e-15
-4.12284e-06
-7.76467e-16
-4.12284e-06
7.78342e-15
-4.12284e-06
-6.6568e-15
-4.12284e-06
6.95372e-15
-4.12284e-06
-2.10055e-15
-4.12284e-06
-6.55776e-15
-4.12284e-06
2.56512e-15
-4.12284e-06
8.61088e-15
-4.12284e-06
-1.32148e-14
7.85444e-15
-4.51549e-06
-2.87847e-15
-4.51549e-06
7.09275e-15
-4.51549e-06
-1.72184e-15
-4.51549e-06
-4.1446e-15
-4.51549e-06
-4.00843e-15
-4.51549e-06
7.46728e-15
-4.51549e-06
-8.05204e-15
-4.51549e-06
7.44519e-15
-4.51549e-06
-6.87297e-15
-4.51549e-06
5.08128e-15
-4.51549e-06
-3.80257e-15
5.98403e-15
-4.90814e-06
-3.96213e-15
-4.90814e-06
1.07712e-14
-4.90814e-06
-1.41566e-14
-4.90814e-06
6.38466e-16
-4.90814e-06
9.90406e-16
-4.90814e-06
-1.32057e-15
-4.90814e-06
3.71438e-15
-4.90814e-06
5.20332e-15
-4.90814e-06
2.10259e-15
-4.90814e-06
1.05062e-15
-4.90814e-06
-1.2731e-14
3.54934e-15
-5.30079e-06
8.33879e-15
-5.30079e-06
3.57262e-15
-5.30079e-06
-2.88041e-15
-5.30079e-06
-6.00561e-15
-5.30079e-06
-3.18592e-15
-5.30079e-06
-1.56049e-15
-5.30079e-06
-2.72047e-15
-5.30079e-06
1.39664e-15
-5.30079e-06
1.22204e-14
-5.30079e-06
-3.8997e-15
-5.30079e-06
-1.32782e-15
8.07181e-16
-5.69344e-06
7.96082e-15
-5.69344e-06
-1.13006e-14
-5.69344e-06
1.4223e-15
-5.69344e-06
-5.17139e-16
-5.69344e-06
1.31597e-14
-5.69344e-06
-1.18397e-15
-5.69344e-06
-9.57237e-15
-5.69344e-06
-2.56354e-15
-5.69344e-06
1.00415e-15
-5.69344e-06
-9.26129e-15
-5.69344e-06
1.15368e-14
-2.36571e-15
-6.08609e-06
6.3289e-15
-6.08609e-06
-4.65859e-15
-6.08609e-06
1.56487e-14
-6.08609e-06
-8.20098e-15
-6.08609e-06
-1.93759e-15
-6.08609e-06
9.69351e-15
-6.08609e-06
-9.81357e-15
-6.08609e-06
1.12549e-14
-6.08609e-06
-1.44256e-14
-6.08609e-06
9.28612e-15
-6.08609e-06
1.70702e-15
-6.13372e-15
-6.47874e-06
5.62104e-15
-6.47874e-06
-9.12445e-16
-6.47874e-06
5.53568e-16
-6.47874e-06
-2.0071e-15
-6.47874e-06
-7.22241e-15
-6.47874e-06
1.01314e-14
-6.47874e-06
6.69569e-15
-6.47874e-06
-1.77424e-14
-6.47874e-06
-3.40783e-15
-6.47874e-06
3.23632e-15
-6.47874e-06
1.68497e-14
-1.01784e-14
-6.8714e-06
-1.64718e-14
-6.8714e-06
7.35362e-15
-6.8714e-06
1.64841e-14
-6.8714e-06
-1.07307e-14
-6.8714e-06
-2.63356e-16
-6.8714e-06
-2.30201e-15
-6.8714e-06
-1.55121e-15
-6.8714e-06
-3.47271e-15
-6.8714e-06
1.61978e-14
-6.8714e-06
-2.74054e-15
-6.8714e-06
-2.22933e-14
1.33717e-14
-7.26405e-06
-1.86201e-14
-7.26405e-06
1.22744e-14
-7.26405e-06
-2.53765e-14
-7.26405e-06
2.09809e-14
-7.26405e-06
-6.04927e-15
-7.26405e-06
-2.61773e-15
-7.26405e-06
1.74996e-14
-7.26405e-06
-8.0359e-15
-7.26405e-06
1.01247e-15
-7.26405e-06
-9.33129e-15
-7.26405e-06
-7.1165e-15
1.00224e-14
-7.6567e-06
2.06197e-14
-7.6567e-06
-4.3453e-15
-7.6567e-06
-3.24915e-15
-7.6567e-06
1.02585e-15
-7.6567e-06
-1.48383e-14
-7.6567e-06
1.09401e-14
-7.6567e-06
8.81976e-15
-7.6567e-06
-1.36558e-14
-7.6567e-06
1.44757e-14
-7.6567e-06
1.41336e-14
-7.6567e-06
-2.07396e-14
6.03708e-15
-8.04935e-06
-8.60671e-16
-8.04935e-06
-9.33992e-15
-8.04935e-06
-3.77981e-15
-8.04935e-06
-1.84611e-15
-8.04935e-06
1.0083e-15
-8.04935e-06
3.07187e-14
-8.04935e-06
-2.63525e-14
-8.04935e-06
-6.69648e-15
-8.04935e-06
2.1846e-14
-8.04935e-06
-6.21332e-15
-8.04935e-06
-1.88261e-15
1.60216e-14
-8.04935e-06
-8.442e-06
5.64445e-15
-8.442e-06
5.91289e-15
-8.442e-06
-2.62765e-14
-8.442e-06
9.94997e-15
-8.442e-06
6.11667e-15
-8.442e-06
1.00228e-14
-8.442e-06
3.59985e-15
-8.442e-06
-3.13227e-14
-8.442e-06
3.34041e-14
-8.442e-06
-2.59402e-14
-8.442e-06
1.38377e-14
-6.22037e-15
-8.442e-06
-8.83465e-06
1.25084e-14
-8.83465e-06
-1.29858e-14
-8.83465e-06
1.33954e-14
-8.83465e-06
3.79367e-15
-8.83465e-06
-3.18714e-14
-8.83465e-06
2.15194e-14
-8.83465e-06
-1.19864e-14
-8.83465e-06
-9.78303e-15
-8.83465e-06
2.5849e-14
-8.83465e-06
-2.7364e-14
-8.83465e-06
7.17711e-15
-6.73557e-15
-8.83465e-06
-9.2273e-06
-9.2273e-06
-9.2273e-06
-9.2273e-06
-9.2273e-06
-9.2273e-06
-9.2273e-06
-9.2273e-06
-9.2273e-06
-9.2273e-06
-9.2273e-06
-9.2273e-06
-8.04935e-06
-1.25789e-14
-8.04935e-06
2.067e-15
-8.04935e-06
-1.53649e-14
-8.04935e-06
1.37804e-14
-8.04935e-06
1.98685e-15
-8.04935e-06
-7.52583e-15
-8.04935e-06
-8.08541e-15
-8.04935e-06
1.03824e-14
-8.04935e-06
2.07319e-14
-8.04935e-06
-2.08804e-14
-8.04935e-06
-1.06317e-14
1.34952e-14
-8.04935e-06
-8.442e-06
9.82707e-15
-8.442e-06
-1.36445e-14
-8.442e-06
3.33447e-15
-8.442e-06
2.11955e-14
-8.442e-06
-3.71602e-14
-8.442e-06
2.04039e-14
-8.442e-06
1.1572e-14
-8.442e-06
-2.97232e-14
-8.442e-06
3.4268e-14
-8.442e-06
-3.15608e-14
-8.442e-06
6.07096e-15
6.68786e-15
-8.442e-06
-8.83465e-06
7.16495e-15
-8.83465e-06
1.83568e-14
-8.83465e-06
-1.82601e-14
-8.83465e-06
-5.19879e-17
-8.83465e-06
1.78471e-14
-8.83465e-06
-1.12945e-14
-8.83465e-06
1.05699e-15
-8.83465e-06
7.19183e-15
-8.83465e-06
7.00442e-15
-8.83465e-06
-7.30754e-16
-8.83465e-06
-1.10051e-14
-7.96823e-16
-8.83465e-06
-9.2273e-06
-9.2273e-06
-9.2273e-06
-9.2273e-06
-9.2273e-06
-9.2273e-06
-9.2273e-06
-9.2273e-06
-9.2273e-06
-9.2273e-06
-9.2273e-06
-9.2273e-06
-8.04935e-06
1.1774e-14
-8.04935e-06
2.95849e-15
-8.04935e-06
-2.19264e-14
-8.04935e-06
1.01151e-14
-8.04935e-06
1.17726e-14
-8.04935e-06
-2.09744e-14
-8.04935e-06
-2.54921e-15
-8.04935e-06
2.56984e-15
-8.04935e-06
1.98086e-14
-8.04935e-06
1.38691e-15
-8.04935e-06
-2.17769e-14
-3.85785e-15
-8.04935e-06
-8.442e-06
-1.67285e-14
-8.442e-06
1.83445e-14
-8.442e-06
-1.59665e-14
-8.442e-06
2.92217e-14
-8.442e-06
-1.53261e-14
-8.442e-06
2.05108e-14
-8.442e-06
-1.86689e-14
-8.442e-06
-6.33262e-15
-8.442e-06
-7.12385e-15
-8.442e-06
-6.1909e-16
-8.442e-06
1.72268e-14
-5.8096e-15
-8.442e-06
-8.83465e-06
-1.18265e-14
-8.83465e-06
-9.30108e-16
-8.83465e-06
2.60601e-14
-8.83465e-06
-2.03012e-14
-8.83465e-06
2.41605e-14
-8.83465e-06
-1.55467e-14
-8.83465e-06
1.09552e-14
-8.83465e-06
-2.8333e-15
-8.83465e-06
2.9259e-16
-8.83465e-06
-2.26898e-15
-8.83465e-06
5.8794e-15
-4.58081e-15
-8.83465e-06
-9.2273e-06
-9.2273e-06
-9.2273e-06
-9.2273e-06
-9.2273e-06
-9.2273e-06
-9.2273e-06
-9.2273e-06
-9.2273e-06
-9.2273e-06
-9.2273e-06
-9.2273e-06
-8.04935e-06
2.02876e-14
-8.04935e-06
-1.96539e-14
-8.04935e-06
-3.18811e-15
-8.04935e-06
9.36151e-15
-8.04935e-06
7.62228e-15
-8.04935e-06
1.21702e-14
-8.04935e-06
-3.12922e-14
-8.04935e-06
1.20635e-14
-8.04935e-06
-3.8659e-15
-8.04935e-06
8.58048e-15
-8.04935e-06
-3.20284e-15
1.81616e-15
-8.442e-06
-6.15279e-15
-8.442e-06
1.06134e-14
-8.442e-06
-4.94378e-15
-8.442e-06
-7.10541e-16
-8.442e-06
1.30267e-15
-8.442e-06
1.25324e-14
-8.442e-06
-1.06236e-14
-8.442e-06
7.5776e-15
-8.442e-06
-2.2675e-14
-8.442e-06
1.083e-15
-8.442e-06
1.61029e-14
-2.83556e-15
-8.83465e-06
-7.92535e-15
-8.83465e-06
-5.43269e-15
-8.83465e-06
-4.92367e-15
-8.83465e-06
8.3306e-15
-8.83465e-06
1.07969e-14
-8.83465e-06
-3.54665e-15
-8.83465e-06
-2.21475e-14
-8.83465e-06
1.9456e-15
-8.83465e-06
2.71455e-14
-8.83465e-06
-6.27659e-15
-8.83465e-06
1.12745e-15
-8.15424e-15
-9.2273e-06
-9.2273e-06
-9.2273e-06
-9.2273e-06
-9.2273e-06
-9.2273e-06
-9.2273e-06
-9.2273e-06
-9.2273e-06
-9.2273e-06
-9.2273e-06
)
;

boundaryField
{
    rotor
    {
        type            calculated;
        value           nonuniform List<scalar> 
96
(
6.11491e-15
-8.7011e-15
1.26072e-15
-1.82694e-15
5.88868e-15
1.51758e-15
-9.57342e-15
6.91076e-15
1.53742e-15
4.91719e-16
-3.52162e-15
-2.35371e-15
-3.60652e-15
6.4716e-15
2.47115e-15
1.42565e-15
-5.07163e-15
5.59435e-16
9.07578e-16
-3.30003e-15
4.81625e-15
1.54857e-15
-8.10508e-16
-3.15651e-15
-3.46462e-15
6.61857e-15
-8.22336e-15
8.37165e-16
8.80253e-15
-7.66565e-15
4.29006e-15
-1.89094e-15
3.87225e-15
-6.51377e-15
9.3967e-15
-8.31394e-15
7.0024e-15
-1.17863e-14
1.01201e-14
-3.17339e-15
-7.13259e-17
4.41738e-15
-8.97289e-15
9.04627e-15
-9.39663e-15
1.01914e-14
-6.61434e-15
1.49235e-15
3.33753e-06
3.73019e-06
4.12284e-06
4.51549e-06
4.90814e-06
5.30079e-06
5.69344e-06
6.08609e-06
6.47874e-06
6.8714e-06
7.26405e-06
7.6567e-06
3.33753e-06
3.73019e-06
4.12284e-06
4.51549e-06
4.90814e-06
5.30079e-06
5.69344e-06
6.08609e-06
6.47874e-06
6.8714e-06
7.26405e-06
7.6567e-06
-3.33753e-06
-3.73019e-06
-4.12284e-06
-4.51549e-06
-4.90814e-06
-5.30079e-06
-5.69344e-06
-6.08609e-06
-6.47874e-06
-6.8714e-06
-7.26405e-06
-7.6567e-06
-3.33753e-06
-3.73019e-06
-4.12284e-06
-4.51549e-06
-4.90814e-06
-5.30079e-06
-5.69344e-06
-6.08609e-06
-6.47874e-06
-6.8714e-06
-7.26405e-06
-7.6567e-06
)
;
    }
    stator
    {
        type            calculated;
        value           nonuniform 0();
    }
    AMI1
    {
        type            cyclicAMI;
        value           nonuniform List<scalar> 
48
(
-1.74204e-14
3.81607e-15
2.70044e-14
-1.94872e-14
2.07898e-14
-1.38346e-14
4.86496e-15
1.25908e-14
-1.51393e-14
-2.88093e-14
2.47364e-14
-5.47064e-15
5.91871e-15
1.9077e-15
2.14344e-15
-1.15283e-14
1.1333e-14
2.40223e-15
-1.27265e-14
-1.08483e-14
3.07547e-14
-1.13291e-14
7.53628e-15
-9.20529e-15
-6.18574e-15
1.51722e-14
-2.53816e-15
-1.06219e-14
-7.32319e-15
7.41482e-15
-5.0032e-15
2.10054e-14
-9.16257e-15
-2.623e-15
-1.47136e-15
2.16315e-14
-3.81679e-14
2.8371e-14
-6.88735e-15
-2.7813e-15
3.97638e-15
-3.93808e-15
1.06259e-15
-3.49009e-15
8.00757e-15
-1.51743e-14
2.24036e-14
-1.36777e-14
)
;
    }
    AMI2
    {
        type            cyclicAMI;
        value           nonuniform 0();
    }
    front
    {
        type            empty;
        value           nonuniform 0();
    }
    back
    {
        type            empty;
        value           nonuniform 0();
    }
    procBoundary3to2
    {
        type            processor;
        value           nonuniform List<scalar> 8(8.04935e-06 8.442e-06 8.83465e-06 9.2273e-06 -8.04935e-06 -8.442e-06 -8.83465e-06 -9.2273e-06);
    }
}


// ************************************************************************* //
