/*--------------------------------*- C++ -*----------------------------------*\
| =========                 |                                                 |
| \\      /  F ield         | OpenFOAM: The Open Source CFD Toolbox           |
|  \\    /   O peration     | Version:  v1806                                 |
|   \\  /    A nd           | Web:      www.OpenFOAM.com                      |
|    \\/     M anipulation  |                                                 |
\*---------------------------------------------------------------------------*/
FoamFile
{
    version     2.0;
    format      ascii;
    class       surfaceScalarField;
    location    "1";
    object      phi;
}
// * * * * * * * * * * * * * * * * * * * * * * * * * * * * * * * * * * * * * //

dimensions      [0 3 -1 0 0 0 0];
oriented        oriented;


internalField   nonuniform List<scalar> 
1460
(
-4.60123e-08
4.60123e-08
-3.39523e-08
-1.20599e-08
6.46021e-08
-9.85544e-08
2.04642e-07
-1.4004e-07
3.14203e-07
-1.09561e-07
3.55533e-07
-4.13297e-08
3.43415e-07
1.21185e-08
2.78823e-07
6.45912e-08
1.70242e-07
1.08581e-07
3.86287e-08
1.31613e-07
-8.33101e-08
1.21939e-07
7.42236e-08
-1.57534e-07
-4.02458e-08
8.62581e-08
9.88837e-08
-1.51189e-07
2.56856e-07
-2.56527e-07
3.66345e-07
-2.49529e-07
4.30308e-07
-1.73525e-07
4.75559e-07
-8.65802e-08
4.60737e-07
2.69407e-08
3.88023e-07
1.37305e-07
2.72987e-07
2.23618e-07
1.26734e-07
2.77866e-07
-3.16319e-08
2.80305e-07
2.22246e-07
-1.79655e-07
6.98355e-08
1.64226e-08
1.81881e-07
-2.63235e-07
2.4116e-07
-3.15805e-07
2.34979e-07
-2.43348e-07
1.95335e-07
-1.3388e-07
1.25489e-07
-1.67347e-08
6.77888e-08
8.4641e-08
2.1155e-08
1.83939e-07
-3.42149e-08
2.78988e-07
-1.17995e-07
3.61646e-07
-2.48134e-07
4.10444e-07
4.40217e-07
-4.66105e-07
2.67249e-08
-1.03022e-08
-1.36677e-08
-2.22843e-07
-1.58593e-07
-1.70879e-07
-3.41102e-07
-6.0839e-08
-4.92921e-07
1.79389e-08
-5.73871e-07
6.42147e-08
-5.92584e-07
1.03354e-07
-5.67305e-07
1.5866e-07
-5.31861e-07
2.43544e-07
-5.2975e-07
3.59535e-07
-6.22922e-07
5.03616e-07
6.8997e-07
-8.72675e-07
-1.05555e-07
9.52533e-08
-3.84935e-07
5.65375e-08
-7.42726e-07
1.86911e-07
-1.0665e-06
2.62931e-07
-1.28738e-06
2.38822e-07
-1.3773e-06
1.54139e-07
-1.34749e-06
7.35419e-08
-1.23192e-06
4.30891e-08
-1.08672e-06
9.83446e-08
-9.76906e-07
2.49721e-07
-9.66583e-07
4.93294e-07
8.20812e-07
-1.09743e-06
-3.27802e-07
4.23056e-07
-8.43671e-07
5.72406e-07
-1.40052e-06
7.43762e-07
-1.8865e-06
7.48907e-07
-2.21353e-06
5.65855e-07
-2.33482e-06
2.7543e-07
-2.25745e-06
-3.82671e-09
-2.02391e-06
-1.90457e-07
-1.71557e-06
-2.09992e-07
-1.42796e-06
-3.78862e-08
-1.20808e-06
2.73407e-07
6.86313e-07
-1.07358e-06
-5.2081e-07
9.43865e-07
-1.21191e-06
1.26351e-06
-1.93131e-06
1.46317e-06
-2.55736e-06
1.37496e-06
-2.98585e-06
9.94346e-07
-3.16152e-06
4.51095e-07
-3.08735e-06
-7.79937e-08
-2.79813e-06
-4.79681e-07
-2.3525e-06
-6.55612e-07
-1.82096e-06
-5.69435e-07
-1.32291e-06
-2.24639e-07
2.30253e-07
-8.66849e-07
-5.58169e-07
1.50203e-06
-1.26201e-06
1.96735e-06
-1.97101e-06
2.17216e-06
-2.56855e-06
1.9725e-06
-2.9616e-06
1.3874e-06
-3.12623e-06
6.15727e-07
-3.08602e-06
-1.18209e-07
-2.88263e-06
-6.83068e-07
-2.51842e-06
-1.01982e-06
-1.98774e-06
-1.10012e-06
-1.30295e-06
-9.09422e-07
-4.92511e-07
-5.80188e-07
-3.81851e-07
1.88389e-06
-8.88733e-07
2.47423e-06
-1.37741e-06
2.66084e-06
-1.75881e-06
2.35389e-06
-1.96949e-06
1.59809e-06
-2.0253e-06
6.71538e-07
-1.97751e-06
-1.66001e-07
-1.8648e-06
-7.9578e-07
-1.68757e-06
-1.19705e-06
-1.40353e-06
-1.38416e-06
-9.36748e-07
-1.3762e-06
-1.1759e-06
-2.53362e-07
-4.20709e-08
1.92596e-06
-2.08863e-07
2.64103e-06
-3.3866e-07
2.79063e-06
-4.48611e-07
2.46384e-06
-5.13147e-07
1.66262e-06
-5.17343e-07
6.75735e-07
-4.5295e-07
-2.30394e-07
-3.33162e-07
-9.15569e-07
-1.88544e-07
-1.34166e-06
-2.02343e-08
-1.55247e-06
2.13086e-07
-1.60952e-06
-1.54417e-06
5.81361e-07
4.17414e-07
1.50854e-06
6.48622e-07
2.40982e-06
8.57096e-07
2.58216e-06
1.00187e-06
2.31907e-06
1.06904e-06
1.59545e-06
1.1059e-06
6.38874e-07
1.16386e-06
-2.88352e-07
1.25149e-06
-1.00319e-06
1.36238e-06
-1.45255e-06
1.50675e-06
-1.69684e-06
1.70157e-06
-1.80435e-06
-1.79697e-06
1.95437e-06
4.92317e-07
1.01623e-06
1.26549e-06
1.63665e-06
1.91351e-06
1.93414e-06
2.36505e-06
1.86753e-06
2.63419e-06
1.3263e-06
2.79424e-06
4.78828e-07
2.89237e-06
-3.86487e-07
2.9493e-06
-1.06012e-06
2.98811e-06
-1.49137e-06
3.04466e-06
-1.75339e-06
3.15525e-06
-1.91493e-06
3.33981e-06
-1.98154e-06
-1.62616e-07
5.08235e-09
-1.21336e-07
-4.12802e-08
-5.1248e-08
-7.00876e-08
7.23219e-08
-1.2357e-07
2.42235e-07
-1.69913e-07
4.2936e-07
-1.87125e-07
5.87832e-07
-1.58472e-07
6.61905e-07
-7.40728e-08
6.17511e-07
4.43934e-08
4.48464e-07
1.69048e-07
1.95185e-07
2.53279e-07
1.95185e-07
-3.29016e-07
1.54444e-07
-4.99189e-07
1.28893e-07
-6.36629e-07
6.73519e-08
-6.72801e-07
-8.73976e-08
-5.99943e-07
-2.4277e-07
-4.32335e-07
-3.54734e-07
-2.18027e-07
-3.72779e-07
-1.62537e-08
-2.75846e-07
1.2247e-07
-9.43302e-08
1.3093e-07
1.60588e-07
4.93775e-08
3.34831e-07
2.44563e-07
-8.03243e-07
4.91582e-07
-1.17454e-06
5.00195e-07
-1.4689e-06
3.6171e-07
-1.667e-06
1.10696e-07
-1.76236e-06
-1.47404e-07
-1.70591e-06
-4.1119e-07
-1.49736e-06
-5.81322e-07
-1.15266e-06
-6.20549e-07
-7.55246e-07
-4.91744e-07
-3.98904e-07
-1.95753e-07
-1.37926e-07
7.38523e-08
1.06636e-07
-1.26561e-06
8.84515e-07
-1.69276e-06
9.27349e-07
-2.08126e-06
7.50205e-07
-2.41127e-06
4.40707e-07
-2.63414e-06
7.54652e-08
-2.72848e-06
-3.16843e-07
-2.62318e-06
-6.86628e-07
-2.26617e-06
-9.77562e-07
-1.64735e-06
-1.11056e-06
-8.49941e-07
-9.93164e-07
-1.95737e-07
-5.80351e-07
-8.91005e-08
-1.33484e-06
1.12193e-06
-1.61335e-06
1.20586e-06
-1.91028e-06
1.04713e-06
-2.21837e-06
7.488e-07
-2.50473e-06
3.61824e-07
-2.72597e-06
-9.56046e-08
-2.82774e-06
-5.84859e-07
-2.73347e-06
-1.07183e-06
-2.33019e-06
-1.51384e-06
-1.5314e-06
-1.79195e-06
-5.02467e-07
-1.60929e-06
-5.91568e-07
-1.01407e-06
1.06242e-06
-1.01361e-06
1.20541e-06
-1.06509e-06
1.09862e-06
-1.16173e-06
8.45441e-07
-1.30612e-06
5.06206e-07
-1.50898e-06
1.07256e-07
-1.74604e-06
-3.47799e-07
-1.95516e-06
-8.62708e-07
-2.02885e-06
-1.44015e-06
-1.76856e-06
-2.05224e-06
-9.50059e-07
-2.42779e-06
-1.54163e-06
-4.77083e-07
6.72652e-07
-1.79936e-07
9.08259e-07
6.3019e-09
9.12378e-07
9.67045e-08
7.55038e-07
1.10656e-07
4.92255e-07
5.18211e-08
1.66091e-07
-1.20479e-07
-1.75499e-07
-3.93213e-07
-5.89974e-07
-7.43345e-07
-1.09002e-06
-1.05601e-06
-1.73958e-06
-9.21335e-07
-2.56246e-06
-2.46296e-06
9.67764e-08
-4.31219e-09
6.4419e-07
3.60845e-07
1.02363e-06
5.32941e-07
1.24329e-06
5.35376e-07
1.32432e-06
4.1123e-07
1.28531e-06
2.05095e-07
1.1574e-06
-4.75844e-08
9.19639e-07
-3.52216e-07
5.8017e-07
-7.50547e-07
1.32571e-07
-1.29198e-06
-2.80747e-07
-2.14914e-06
-2.74371e-06
5.53065e-07
-8.1074e-07
1.30835e-06
-3.94444e-07
1.88109e-06
-3.97981e-08
2.23413e-06
1.82339e-07
2.38031e-06
2.65055e-07
2.35667e-06
2.28731e-07
2.20246e-06
1.06628e-07
1.93433e-06
-8.40933e-08
1.54664e-06
-3.62853e-07
1.05388e-06
-7.99216e-07
4.26041e-07
-1.52131e-06
-2.31767e-06
1.13087e-06
-1.36025e-06
1.80636e-06
-1.06994e-06
2.47498e-06
-7.0842e-07
2.99394e-06
-3.36617e-07
3.2809e-06
-2.19049e-08
3.3284e-06
1.81231e-07
3.17836e-06
2.56671e-07
2.87716e-06
2.171e-07
2.44245e-06
7.18618e-08
1.82246e-06
-1.79229e-07
1.0209e-06
-7.1974e-07
-1.29677e-06
2.26839e-06
-1.67427e-06
2.64943e-06
-1.45097e-06
3.09431e-06
-1.1533e-06
3.55599e-06
-7.98293e-07
3.93859e-06
-4.04514e-07
4.1385e-06
-1.86754e-08
4.10408e-06
2.91088e-07
3.84229e-06
4.78896e-07
3.37488e-06
5.39273e-07
2.70107e-06
4.94582e-07
1.69027e-06
2.91059e-07
3.93494e-07
3.58439e-06
-1.91885e-06
3.84749e-06
-1.71408e-06
4.09672e-06
-1.40253e-06
4.33229e-06
-1.03387e-06
4.56688e-06
-6.39098e-07
4.77323e-06
-2.2503e-07
4.86948e-06
1.9484e-07
4.77196e-06
5.76416e-07
4.42992e-06
8.81315e-07
3.77069e-06
1.15381e-06
2.54719e-06
1.51456e-06
2.94069e-06
-4.37115e-08
4.37115e-08
-3.63019e-08
-7.40959e-09
6.99404e-08
-1.06242e-07
2.14044e-07
-1.44103e-07
3.24068e-07
-1.10024e-07
3.63753e-07
-3.96852e-08
3.49532e-07
1.42212e-08
2.82268e-07
6.72639e-08
1.70997e-07
1.11271e-07
3.72522e-08
1.33744e-07
-8.57206e-08
1.22973e-07
7.38482e-08
-1.59569e-07
-3.70905e-08
8.0802e-08
1.08223e-07
-1.52723e-07
2.63971e-07
-2.61991e-07
3.72637e-07
-2.52769e-07
4.36027e-07
-1.73414e-07
4.80966e-07
-8.46244e-08
4.63248e-07
3.19399e-08
3.8793e-07
1.42581e-07
2.70088e-07
2.29114e-07
1.20927e-07
2.82905e-07
-3.98545e-08
2.83754e-07
2.24347e-07
-1.90353e-07
6.90864e-08
1.17157e-08
1.84209e-07
-2.67845e-07
2.43285e-07
-3.21067e-07
2.37653e-07
-2.47137e-07
1.99167e-07
-1.34929e-07
1.29285e-07
-1.47421e-08
7.17205e-08
8.95047e-08
2.34376e-08
1.90864e-07
-3.51351e-08
2.87687e-07
-1.23011e-07
3.70781e-07
-2.5868e-07
4.19423e-07
4.50899e-07
-4.85233e-07
2.61388e-08
-1.44231e-08
-1.31338e-08
-2.28573e-07
-1.56525e-07
-1.77675e-07
-3.35441e-07
-6.82216e-08
-4.83541e-07
1.31713e-08
-5.62171e-07
6.3888e-08
-5.80666e-07
1.08e-07
-5.57499e-07
1.67697e-07
-5.26264e-07
2.56452e-07
-5.30748e-07
3.75265e-07
-6.33463e-07
5.22138e-07
7.11795e-07
-8.94359e-07
-1.056e-07
9.11773e-08
-3.83195e-07
4.90216e-08
-7.36515e-07
1.75646e-07
-1.05508e-06
2.50345e-07
-1.27077e-06
2.28864e-07
-1.35709e-06
1.50202e-07
-1.32675e-06
7.76651e-08
-1.21392e-06
5.4866e-08
-1.07419e-06
1.16717e-07
-9.73253e-07
2.74329e-07
-9.73731e-07
5.22617e-07
8.51602e-07
-1.11354e-06
-3.27065e-07
4.18242e-07
-8.40162e-07
5.62119e-07
-1.39263e-06
7.28113e-07
-1.87281e-06
7.30522e-07
-2.19344e-06
5.49494e-07
-2.30922e-06
2.65992e-07
-2.22873e-06
-2.83039e-09
-1.9975e-06
-1.76365e-07
-1.69651e-06
-1.84269e-07
-1.41739e-06
-4.79073e-09
-1.20783e-06
3.13056e-07
7.22917e-07
-1.07915e-06
-5.20473e-07
9.38715e-07
-1.21069e-06
1.25233e-06
-1.92825e-06
1.44568e-06
-2.55104e-06
1.35331e-06
-2.97516e-06
9.7361e-07
-3.146e-06
4.36833e-07
-3.06693e-06
-8.18956e-08
-2.77316e-06
-4.7014e-07
-2.326e-06
-6.3143e-07
-1.79724e-06
-5.33552e-07
-1.31393e-06
-1.70252e-07
2.69412e-07
-8.60424e-07
-5.59162e-07
1.49788e-06
-1.26484e-06
1.95801e-06
-1.97539e-06
2.15623e-06
-2.57393e-06
1.95185e-06
-2.96743e-06
1.36711e-06
-3.13168e-06
6.01087e-07
-3.08921e-06
-1.24371e-07
-2.88047e-06
-6.78875e-07
-2.50824e-06
-1.00366e-06
-1.97126e-06
-1.07053e-06
-1.27586e-06
-8.65649e-07
-4.47096e-07
-5.59355e-07
-3.83842e-07
1.88172e-06
-8.93816e-07
2.46798e-06
-1.38562e-06
2.64804e-06
-1.76964e-06
2.33587e-06
-1.98286e-06
1.58033e-06
-2.04112e-06
6.59345e-07
-1.9949e-06
-1.70583e-07
-1.88156e-06
-7.92217e-07
-1.69996e-06
-1.18526e-06
-1.40636e-06
-1.36414e-06
-9.24305e-07
-1.3477e-06
-1.14211e-06
-2.29288e-07
-4.44409e-08
1.92616e-06
-2.14869e-07
2.63841e-06
-3.48411e-07
2.78158e-06
-4.61333e-07
2.44879e-06
-5.27784e-07
1.64678e-06
-5.32246e-07
6.63807e-07
-4.67694e-07
-2.35135e-07
-3.48039e-07
-9.11872e-07
-2.02992e-07
-1.33031e-06
-3.17036e-08
-1.53543e-06
2.09437e-07
-1.58884e-06
-1.52185e-06
5.89175e-07
4.14563e-07
1.5116e-06
6.41801e-07
2.41117e-06
8.46801e-07
2.57658e-06
9.88274e-07
2.30732e-06
1.05376e-06
1.5813e-06
1.09045e-06
6.27111e-07
1.14931e-06
-2.93996e-07
1.23821e-06
-1.00077e-06
1.35133e-06
-1.44343e-06
1.49929e-06
-1.68338e-06
1.69869e-06
-1.78825e-06
-1.77967e-06
1.95652e-06
4.8755e-07
1.02405e-06
1.25775e-06
1.64097e-06
1.90343e-06
1.9309e-06
2.35227e-06
1.85848e-06
2.62e-06
1.31357e-06
2.77946e-06
4.67645e-07
2.87775e-06
-3.92286e-07
2.93554e-06
-1.05856e-06
2.97651e-06
-1.4844e-06
3.03659e-06
-1.74346e-06
3.1518e-06
-1.90346e-06
3.3413e-06
-1.96917e-06
-1.6405e-07
4.48136e-09
-1.24322e-07
-3.97282e-08
-5.62495e-08
-6.80725e-08
6.53805e-08
-1.2163e-07
2.33802e-07
-1.68422e-07
4.20427e-07
-1.86624e-07
5.79536e-07
-1.59109e-07
6.54884e-07
-7.53483e-08
6.12107e-07
4.27768e-08
4.45046e-07
1.67061e-07
1.93779e-07
2.51267e-07
1.93779e-07
-3.449e-07
1.59028e-07
-5.20694e-07
1.36066e-07
-6.61025e-07
7.22586e-08
-6.9814e-07
-8.45149e-08
-6.24864e-07
-2.41698e-07
-4.56488e-07
-3.55e-07
-2.40174e-07
-3.75424e-07
-3.4504e-08
-2.81018e-07
1.07741e-07
-9.9468e-08
1.22385e-07
1.52417e-07
4.60901e-08
3.27562e-07
2.39869e-07
-8.31307e-07
5.05102e-07
-1.20644e-06
5.11196e-07
-1.50269e-06
3.6851e-07
-1.70255e-06
1.15347e-07
-1.79954e-06
-1.44712e-07
-1.74318e-06
-4.11358e-07
-1.53252e-06
-5.86083e-07
-1.18246e-06
-6.31075e-07
-7.74228e-07
-5.07702e-07
-4.05586e-07
-2.16225e-07
-1.37964e-07
5.99396e-08
1.01905e-07
-1.29422e-06
9.04961e-07
-1.72316e-06
9.40135e-07
-2.11212e-06
7.57473e-07
-2.44243e-06
4.4566e-07
-2.66521e-06
7.80661e-08
-2.75914e-06
-3.17424e-07
-2.65335e-06
-6.91875e-07
-2.29497e-06
-9.89457e-07
-1.67144e-06
-1.13123e-06
-8.65675e-07
-1.02199e-06
-1.98808e-07
-6.06927e-07
-9.6903e-08
-1.3542e-06
1.14563e-06
-1.63156e-06
1.21749e-06
-1.92526e-06
1.05118e-06
-2.22888e-06
7.49276e-07
-2.51088e-06
3.60072e-07
-2.7295e-06
-9.88082e-08
-2.83168e-06
-5.89697e-07
-2.74118e-06
-1.07995e-06
-2.34389e-06
-1.52852e-06
-1.54896e-06
-1.81692e-06
-5.13787e-07
-1.6421e-06
-6.1069e-07
-1.02114e-06
1.08761e-06
-1.01876e-06
1.21512e-06
-1.06568e-06
1.0981e-06
-1.15573e-06
8.39324e-07
-1.29289e-06
4.97231e-07
-1.48979e-06
9.80924e-08
-1.72396e-06
-3.55526e-07
-1.93491e-06
-8.69003e-07
-2.01631e-06
-1.44712e-06
-1.76881e-06
-2.06442e-06
-9.59141e-07
-2.45177e-06
-1.56983e-06
-4.72673e-07
6.99864e-07
-1.7626e-07
9.18705e-07
1.15443e-08
9.10293e-07
1.05465e-07
7.45403e-07
1.23525e-07
4.79171e-07
6.85851e-08
1.53033e-07
-1.00235e-07
-1.86706e-07
-3.69825e-07
-5.99414e-07
-7.19584e-07
-1.09736e-06
-1.03827e-06
-1.74574e-06
-9.16549e-07
-2.57349e-06
-2.48638e-06
1.12077e-07
2.84317e-08
6.54154e-07
3.76628e-07
1.03055e-06
5.33897e-07
1.24935e-06
5.26604e-07
1.33092e-06
3.97605e-07
1.29321e-06
1.90735e-07
1.1668e-06
-6.02916e-08
9.29859e-07
-3.62474e-07
5.9236e-07
-7.59865e-07
1.46756e-07
-1.30014e-06
-2.7041e-07
-2.15632e-06
-2.75679e-06
5.78324e-07
-7.7918e-07
1.32702e-06
-3.72064e-07
1.89204e-06
-3.11321e-08
2.23916e-06
1.79489e-07
2.38198e-06
2.54789e-07
2.35734e-06
2.15368e-07
2.20366e-06
9.33877e-08
1.93685e-06
-9.56659e-08
1.54976e-06
-3.72766e-07
1.05769e-06
-8.08066e-07
4.30784e-07
-1.52942e-06
-2.326e-06
1.14812e-06
-1.33813e-06
1.82685e-06
-1.05079e-06
2.4915e-06
-6.95777e-07
3.00324e-06
-3.32255e-07
3.28338e-06
-2.53497e-08
3.32644e-06
1.72312e-07
3.17465e-06
2.45175e-07
2.87378e-06
2.05202e-07
2.44035e-06
6.06672e-08
1.82239e-06
-1.90111e-07
1.02226e-06
-7.29291e-07
-1.30374e-06
2.2758e-06
-1.65741e-06
2.66136e-06
-1.43636e-06
3.10789e-06
-1.14231e-06
3.56736e-06
-7.91721e-07
3.94493e-06
-4.02922e-07
4.13935e-06
-2.21029e-08
4.10097e-06
2.83553e-07
3.8374e-06
4.68776e-07
3.37016e-06
5.279e-07
2.69805e-06
4.82001e-07
1.69003e-06
2.7873e-07
3.86288e-07
3.5901e-06
-1.90621e-06
3.85598e-06
-1.70224e-06
4.10648e-06
-1.39281e-06
4.34195e-06
-1.02719e-06
4.5746e-06
-6.35568e-07
4.77734e-06
-2.24849e-07
4.86965e-06
1.91249e-07
4.76931e-06
5.69115e-07
4.42609e-06
8.71115e-07
3.76666e-06
1.14143e-06
2.54416e-06
1.50124e-06
2.93044e-06
3.65985e-06
2.22233e-06
3.42912e-06
1.86738e-06
3.60099e-06
1.76226e-06
3.97041e-06
1.49811e-06
4.33182e-06
9.6489e-07
4.57797e-06
2.32679e-07
4.69081e-06
-4.99323e-07
4.69708e-06
-1.06639e-06
4.66051e-06
-1.4548e-06
4.6374e-06
-1.73028e-06
4.66266e-06
-1.9402e-06
-2.0689e-06
4.75002e-06
6.44631e-06
2.40857e-06
6.22812e-06
2.08557e-06
6.1769e-06
1.81349e-06
6.27606e-06
1.39895e-06
6.42573e-06
8.15222e-07
6.49969e-06
1.58725e-07
6.46475e-06
-4.64385e-07
6.3542e-06
-9.55833e-07
6.23483e-06
-1.33544e-06
6.15325e-06
-1.64869e-06
6.12913e-06
-1.91609e-06
-2.0966e-06
6.15684e-06
7.85463e-06
2.1714e-06
7.9571e-06
1.9831e-06
8.04498e-06
1.72561e-06
8.10562e-06
1.3383e-06
8.10773e-06
8.13114e-07
8.03207e-06
2.34388e-07
7.88053e-06
-3.12851e-07
7.70209e-06
-7.77395e-07
7.54504e-06
-1.17838e-06
7.44572e-06
-1.54937e-06
7.42e-06
-1.89036e-06
-2.12287e-06
7.44627e-06
8.51286e-06
8.74116e-06
8.92817e-06
9.04419e-06
9.06285e-06
8.98657e-06
8.84321e-06
8.67773e-06
8.53219e-06
8.43726e-06
8.42773e-06
8.5072e-06
4.89062e-06
-2.05945e-06
5.05902e-06
-1.88248e-06
5.22259e-06
-1.56609e-06
5.34359e-06
-1.15487e-06
5.41595e-06
-7.11459e-07
5.47419e-06
-2.83271e-07
5.53512e-06
1.33907e-07
5.55074e-06
5.60795e-07
5.4349e-06
9.97155e-07
5.13571e-06
1.453e-06
4.73793e-06
1.91234e-06
2.81106e-06
4.86755e-06
6.20743e-06
-2.11004e-06
6.25791e-06
-1.93296e-06
6.31262e-06
-1.6208e-06
6.3519e-06
-1.19415e-06
6.34818e-06
-7.07737e-07
6.30419e-06
-2.39284e-07
6.25922e-06
1.7888e-07
6.24987e-06
5.70147e-07
6.26738e-06
9.79637e-07
6.28826e-06
1.43212e-06
6.33241e-06
1.8682e-06
2.50318e-06
6.64029e-06
7.44972e-06
-2.11348e-06
7.39015e-06
-1.87339e-06
7.33049e-06
-1.56114e-06
7.27843e-06
-1.14209e-06
7.22133e-06
-6.50641e-07
7.14563e-06
-1.63581e-07
7.05516e-06
2.69352e-07
6.9866e-06
6.3871e-07
6.98589e-06
9.80338e-07
7.07834e-06
1.33968e-06
7.2437e-06
1.70284e-06
2.11613e-06
7.63074e-06
8.53186e-06
8.36874e-06
8.18518e-06
8.03925e-06
7.94123e-06
7.8703e-06
7.80479e-06
7.74556e-06
7.72018e-06
7.7711e-06
7.91855e-06
8.22869e-06
3.65663e-06
2.23497e-06
3.42372e-06
1.87388e-06
3.59275e-06
1.76186e-06
3.95982e-06
1.49142e-06
4.31913e-06
9.54265e-07
4.56412e-06
2.22653e-07
4.6761e-06
-5.04268e-07
4.68329e-06
-1.06574e-06
4.64919e-06
-1.4503e-06
4.62946e-06
-1.72373e-06
4.65855e-06
-1.93254e-06
-2.06058e-06
4.74996e-06
6.45018e-06
2.42508e-06
6.22769e-06
2.09637e-06
6.17257e-06
1.81698e-06
6.26829e-06
1.39569e-06
6.41454e-06
8.0801e-07
6.48654e-06
1.50657e-07
6.45083e-06
-4.68561e-07
6.34179e-06
-9.56698e-07
6.22516e-06
-1.33367e-06
6.14674e-06
-1.64531e-06
6.12593e-06
-1.91173e-06
-2.0917e-06
6.15704e-06
7.86663e-06
2.18919e-06
7.96471e-06
1.99829e-06
8.04706e-06
1.73463e-06
8.10265e-06
1.34011e-06
8.10088e-06
8.09773e-07
8.0224e-06
2.29141e-07
7.87061e-06
-3.16771e-07
7.69329e-06
-7.79381e-07
7.53817e-06
-1.17855e-06
7.44113e-06
-1.54827e-06
7.41804e-06
-1.88864e-06
-2.12125e-06
7.44758e-06
8.53123e-06
8.75659e-06
8.93815e-06
9.04887e-06
9.06309e-06
8.98367e-06
8.83885e-06
8.67299e-06
8.52802e-06
8.4345e-06
8.42699e-06
8.5094e-06
4.89443e-06
-2.05068e-06
5.06571e-06
-1.87352e-06
5.23071e-06
-1.55781e-06
5.35204e-06
-1.14852e-06
5.42377e-06
-7.07301e-07
5.48024e-06
-2.81316e-07
5.5383e-06
1.33191e-07
5.55084e-06
5.56576e-07
5.43286e-06
9.8909e-07
5.13275e-06
1.44154e-06
4.73578e-06
1.89821e-06
2.79751e-06
6.21069e-06
-2.10433e-06
6.26351e-06
-1.92633e-06
6.31935e-06
-1.61365e-06
6.35886e-06
-1.18804e-06
6.35484e-06
-7.03277e-07
6.31021e-06
-2.36681e-07
6.26382e-06
1.79573e-07
6.25206e-06
5.68345e-07
6.26677e-06
9.74379e-07
6.28529e-06
1.42301e-06
6.32824e-06
1.85526e-06
2.48857e-06
7.45381e-06
-2.11056e-06
7.39607e-06
-1.86859e-06
7.33718e-06
-1.55477e-06
7.28492e-06
-1.13578e-06
7.22721e-06
-6.45569e-07
7.15095e-06
-1.60419e-07
7.05991e-06
2.70617e-07
6.99013e-06
6.3812e-07
6.9871e-06
9.77411e-07
7.0765e-06
1.33361e-06
7.23886e-06
1.6929e-06
2.10324e-06
8.53608e-06
8.37451e-06
8.19156e-06
8.0452e-06
7.94667e-06
7.87518e-06
7.80915e-06
7.74938e-06
7.72285e-06
7.77153e-06
7.91553e-06
)
;

boundaryField
{
    rotor
    {
        type            calculated;
        value           nonuniform List<scalar> 
96
(
5.66098e-24
1.50832e-23
2.30577e-23
-4.38664e-23
9.79175e-23
-4.96309e-24
-9.71678e-23
-8.9594e-23
-4.33365e-23
-6.48691e-23
1.03269e-23
7.38002e-24
7.05818e-23
1.14383e-23
-1.51516e-22
5.36633e-23
4.88812e-23
-1.47703e-22
2.28509e-23
-1.03307e-22
1.20975e-23
-1.02622e-23
1.04691e-24
5.98415e-24
1.25241e-23
-5.68725e-25
-8.33513e-23
-7.106e-23
4.46936e-23
-5.43354e-23
-1.2356e-23
-3.71973e-23
1.22694e-22
7.19909e-24
-1.56622e-22
1.31703e-22
8.98912e-23
-9.02789e-23
1.26533e-22
-3.35396e-23
5.6119e-23
7.72638e-23
-4.8907e-23
7.09824e-23
-7.52992e-23
2.84601e-23
2.48801e-23
9.51257e-24
4.23516e-22
0
0
0
8.47033e-22
0
8.47033e-22
-8.47033e-22
0
8.47033e-22
0
0
0
0
0
0
0
0
-8.47033e-22
0
-8.47033e-22
-8.47033e-22
0
-1.69407e-21
0
4.23516e-22
0
0
8.47033e-22
0
8.47033e-22
0
0
8.47033e-22
0
1.69407e-21
4.23516e-22
4.23516e-22
0
0
0
-8.47033e-22
-8.47033e-22
0
-1.69407e-21
-8.47033e-22
-8.47033e-22
-1.69407e-21
)
;
    }
    stator
    {
        type            calculated;
        value           nonuniform 0();
    }
    AMI1
    {
        type            cyclicAMI;
        value           nonuniform List<scalar> 
48
(
1.87004e-06
1.75479e-06
1.5386e-06
1.22228e-06
7.94457e-07
3.10661e-07
-1.69491e-07
-6.11915e-07
-1.03283e-06
-1.45445e-06
-1.88083e-06
-2.20234e-06
-2.13815e-06
-1.71026e-06
-1.37758e-06
-9.96168e-07
-5.52621e-07
-9.26435e-08
3.34861e-07
6.97941e-07
1.00571e-06
1.28876e-06
1.55538e-06
1.806e-06
1.88665e-06
1.77293e-06
1.55307e-06
1.22938e-06
7.95555e-07
3.08558e-07
-1.71942e-07
-6.13527e-07
-1.03358e-06
-1.45476e-06
-1.88113e-06
-2.20365e-06
-2.13724e-06
-1.70702e-06
-1.37182e-06
-9.89415e-07
-5.47042e-07
-8.89217e-08
3.36639e-07
6.97892e-07
1.00394e-06
1.28494e-06
1.54889e-06
1.79693e-06
)
;
    }
    AMI2
    {
        type            cyclicAMI;
        value           nonuniform 0();
    }
    front
    {
        type            empty;
        value           nonuniform 0();
    }
    back
    {
        type            empty;
        value           nonuniform 0();
    }
    procBoundary3to2
    {
        type            processor;
        value           nonuniform List<scalar> 8(-4.86596e-06 -6.63254e-06 -7.61747e-06 -8.21149e-06 4.86872e-06 6.63719e-06 7.62418e-06 8.22184e-06);
    }
}


// ************************************************************************* //
