/*--------------------------------*- C++ -*----------------------------------*\
| =========                 |                                                 |
| \\      /  F ield         | OpenFOAM: The Open Source CFD Toolbox           |
|  \\    /   O peration     | Version:  v1806                                 |
|   \\  /    A nd           | Web:      www.OpenFOAM.com                      |
|    \\/     M anipulation  |                                                 |
\*---------------------------------------------------------------------------*/
FoamFile
{
    version     2.0;
    format      ascii;
    class       surfaceScalarField;
    location    "5";
    object      meshPhi;
}
// * * * * * * * * * * * * * * * * * * * * * * * * * * * * * * * * * * * * * //

dimensions      [0 3 -1 0 0 0 0];
oriented        oriented;


internalField   nonuniform List<scalar> 
1460
(
-3.33709e-06
-4.20077e-15
-3.33709e-06
2.38016e-15
-3.33709e-06
1.62733e-15
-3.33709e-06
-4.34996e-15
-3.33709e-06
9.27493e-15
-3.33709e-06
1.37835e-15
-3.33709e-06
-5.95078e-15
-3.33709e-06
-1.28948e-15
-3.33709e-06
6.47226e-15
-3.33709e-06
-1.1876e-15
-3.33709e-06
-7.84753e-16
-6.76228e-15
-3.33709e-06
-3.72969e-06
-1.69243e-15
-3.72969e-06
-5.79066e-15
-3.72969e-06
5.70333e-15
-3.72969e-06
2.91255e-15
-3.72969e-06
-1.56379e-15
-3.72969e-06
4.81692e-15
-3.72969e-06
-1.27643e-14
-3.72969e-06
7.85547e-15
-3.72969e-06
3.24697e-15
-3.72969e-06
-1.42599e-15
-3.72969e-06
-4.0409e-15
3.48968e-15
-3.72969e-06
-4.12229e-06
1.41093e-15
-4.12229e-06
1.47804e-15
-4.12229e-06
-6.90523e-15
-4.12229e-06
1.20612e-14
-4.12229e-06
-1.53316e-14
-4.12229e-06
1.01289e-14
-4.12229e-06
8.99842e-16
-4.12229e-06
-3.51106e-15
-4.12229e-06
-7.67232e-16
-4.12229e-06
-1.68562e-15
-4.12229e-06
3.45897e-15
4.55253e-15
-4.12229e-06
-4.51489e-06
5.10932e-15
-4.51489e-06
-8.50995e-15
-4.51489e-06
-2.85877e-15
-4.51489e-06
4.25008e-15
-4.51489e-06
4.47301e-15
-4.51489e-06
-2.24669e-15
-4.51489e-06
-7.23459e-15
-4.51489e-06
-1.27327e-15
-4.51489e-06
3.85208e-15
-4.51489e-06
-1.96656e-15
-4.51489e-06
-2.93134e-17
4.84514e-15
-4.51489e-06
-4.90749e-06
9.4027e-15
-4.90749e-06
5.5536e-17
-4.90749e-06
-1.86721e-14
-4.90749e-06
1.50721e-14
-4.90749e-06
-1.12405e-14
-4.90749e-06
2.49334e-15
-4.90749e-06
1.06008e-14
-4.90749e-06
-1.57409e-14
-4.90749e-06
-9.54676e-16
-4.90749e-06
-2.26877e-15
-4.90749e-06
9.30928e-15
6.09256e-15
-4.90749e-06
-5.30009e-06
-7.79115e-15
-5.30009e-06
1.06196e-14
-5.30009e-06
6.62102e-15
-5.30009e-06
-1.57238e-14
-5.30009e-06
1.12129e-14
-5.30009e-06
-1.14139e-14
-5.30009e-06
1.83061e-15
-5.30009e-06
-2.97586e-15
-5.30009e-06
5.66418e-15
-5.30009e-06
2.6355e-15
-5.30009e-06
2.64263e-15
-8.07634e-15
-5.30009e-06
-5.69269e-06
-3.88501e-15
-5.69269e-06
-1.27472e-15
-5.69269e-06
1.24771e-14
-5.69269e-06
-4.15896e-15
-5.69269e-06
-1.09947e-15
-5.69269e-06
9.16156e-15
-5.69269e-06
1.47343e-15
-5.69269e-06
-1.97594e-14
-5.69269e-06
1.97382e-14
-5.69269e-06
-2.58197e-15
-5.69269e-06
-1.6262e-14
7.85177e-15
-5.69269e-06
-6.08529e-06
6.1614e-16
-6.08529e-06
1.00552e-14
-6.08529e-06
-5.37014e-15
-6.08529e-06
-1.8264e-14
-6.08529e-06
3.63453e-15
-6.08529e-06
1.74519e-14
-6.08529e-06
-9.38331e-15
-6.08529e-06
-5.10421e-15
-6.08529e-06
1.47429e-14
-6.08529e-06
-2.92433e-15
-6.08529e-06
-5.84947e-15
-8.35338e-15
-6.08529e-06
-6.47788e-06
5.7123e-15
-6.47788e-06
-3.6563e-15
-6.47788e-06
3.95217e-16
-6.47788e-06
-7.09869e-15
-6.47788e-06
7.77139e-15
-6.47788e-06
1.42236e-15
-6.47788e-06
-2.16095e-14
-6.47788e-06
1.15476e-14
-6.47788e-06
8.9588e-15
-6.47788e-06
-3.28799e-15
-6.47788e-06
6.00014e-15
-7.77219e-15
-6.47788e-06
-6.87048e-06
1.14035e-14
-6.87048e-06
-1.90549e-14
-6.87048e-06
7.42977e-15
-6.87048e-06
1.22791e-14
-6.87048e-06
-2.17149e-14
-6.87048e-06
1.01457e-14
-6.87048e-06
2.64927e-15
-6.87048e-06
-7.65839e-15
-6.87048e-06
2.38577e-15
-6.87048e-06
-3.67299e-15
-6.87048e-06
6.49018e-16
-8.4113e-15
-6.87048e-06
-7.26308e-06
-1.2084e-14
-7.26308e-06
2.32154e-14
-7.26308e-06
-1.4921e-14
-7.26308e-06
-2.10487e-15
-7.26308e-06
1.98602e-14
-7.26308e-06
-1.80161e-14
-7.26308e-06
-1.02126e-14
-7.26308e-06
1.08835e-14
-7.26308e-06
-4.9761e-15
-7.26308e-06
1.95925e-14
-7.26308e-06
-9.3344e-15
1.34528e-14
-7.26308e-06
-7.65568e-06
-6.76972e-15
-7.65568e-06
7.97663e-15
-7.65568e-06
-8.32592e-15
-7.65568e-06
1.16502e-14
-7.65568e-06
-4.23603e-15
-7.65568e-06
-9.36473e-15
-7.65568e-06
1.76165e-14
-7.65568e-06
-2.63424e-14
-7.65568e-06
2.5771e-15
-7.65568e-06
2.04108e-14
-7.65568e-06
-1.61636e-14
-7.65568e-06
1.39587e-14
-3.33709e-06
2.84046e-15
-3.33709e-06
-3.12027e-15
-3.33709e-06
-2.6839e-15
-3.33709e-06
1.94636e-15
-3.33709e-06
2.3463e-15
-3.33709e-06
2.07037e-15
-3.33709e-06
-4.32402e-15
-3.33709e-06
3.88394e-16
-3.33709e-06
9.02876e-16
-3.33709e-06
8.58458e-15
-3.33709e-06
-6.06185e-15
5.03256e-16
-3.72969e-06
2.50709e-15
-3.72969e-06
-1.09239e-15
-3.72969e-06
-3.71101e-15
-3.72969e-06
5.23438e-15
-3.72969e-06
-1.24495e-14
-3.72969e-06
8.77285e-15
-3.72969e-06
5.89118e-15
-3.72969e-06
-2.05185e-15
-3.72969e-06
-7.54941e-15
-3.72969e-06
5.23767e-15
-3.72969e-06
1.39352e-15
-2.92947e-15
-4.12229e-06
2.04391e-15
-4.12229e-06
-9.10558e-15
-4.12229e-06
-3.96505e-15
-4.12229e-06
1.00967e-14
-4.12229e-06
-1.54239e-15
-4.12229e-06
-5.95146e-15
-4.12229e-06
5.0874e-15
-4.12229e-06
-6.31926e-15
-4.12229e-06
-5.79358e-16
-4.12229e-06
1.2561e-15
-4.12229e-06
1.01362e-14
-6.94694e-15
-4.51489e-06
2.35101e-15
-4.51489e-06
5.34132e-15
-4.51489e-06
-5.20018e-15
-4.51489e-06
5.27833e-15
-4.51489e-06
-5.32713e-15
-4.51489e-06
6.00481e-16
-4.51489e-06
-3.78696e-15
-4.51489e-06
7.48309e-15
-4.51489e-06
-1.04074e-14
-4.51489e-06
-3.54462e-15
-4.51489e-06
1.63877e-15
7.16281e-15
-4.90749e-06
-1.36457e-14
-4.90749e-06
1.17943e-14
-4.90749e-06
-5.4952e-15
-4.90749e-06
-6.83407e-15
-4.90749e-06
7.96073e-15
-4.90749e-06
5.22066e-16
-4.90749e-06
-3.12381e-15
-4.90749e-06
1.20934e-15
-4.90749e-06
-2.67357e-15
-4.90749e-06
1.08096e-14
-4.90749e-06
-7.89756e-15
3.2245e-15
-5.30009e-06
-5.77887e-17
-5.30009e-06
2.64203e-15
-5.30009e-06
6.4456e-15
-5.30009e-06
-3.05929e-15
-5.30009e-06
-6.67165e-15
-5.30009e-06
8.83738e-15
-5.30009e-06
2.32145e-15
-5.30009e-06
1.49679e-15
-5.30009e-06
-1.47127e-14
-5.30009e-06
6.33588e-15
-5.30009e-06
2.44467e-15
-1.26777e-15
-5.69269e-06
-1.03538e-15
-5.69269e-06
6.39258e-15
-5.69269e-06
-7.27436e-15
-5.69269e-06
2.63885e-15
-5.69269e-06
9.42282e-15
-5.69269e-06
-1.18063e-14
-5.69269e-06
2.85944e-15
-5.69269e-06
-5.59758e-15
-5.69269e-06
-5.83929e-15
-5.69269e-06
3.3734e-16
-5.69269e-06
1.46586e-14
-6.43724e-15
-6.08529e-06
-3.2668e-15
-6.08529e-06
1.42131e-14
-6.08529e-06
6.37041e-15
-6.08529e-06
-4.83356e-15
-6.08529e-06
-5.9215e-15
-6.08529e-06
-1.6384e-15
-6.08529e-06
3.44699e-15
-6.08529e-06
8.66708e-15
-6.08529e-06
-1.79617e-14
-6.08529e-06
1.8718e-14
-6.08529e-06
3.40273e-15
-1.24482e-14
-6.47788e-06
-4.57422e-15
-6.47788e-06
1.91382e-14
-6.47788e-06
-9.30249e-15
-6.47788e-06
1.56989e-15
-6.47788e-06
-1.14547e-14
-6.47788e-06
8.30759e-15
-6.47788e-06
-1.47136e-14
-6.47788e-06
1.17016e-14
-6.47788e-06
-9.90965e-15
-6.47788e-06
1.29251e-14
-6.47788e-06
-9.72809e-15
7.65727e-15
-6.87048e-06
1.39764e-14
-6.87048e-06
-1.50956e-14
-6.87048e-06
2.8472e-14
-6.87048e-06
-1.72887e-14
-6.87048e-06
-7.24878e-15
-6.87048e-06
8.61845e-15
-6.87048e-06
1.16344e-14
-6.87048e-06
-8.3588e-16
-6.87048e-06
-2.0766e-14
-6.87048e-06
5.94407e-15
-6.87048e-06
4.33179e-15
1.82815e-15
-7.26308e-06
-3.00116e-14
-7.26308e-06
1.10104e-14
-7.26308e-06
-1.27169e-14
-7.26308e-06
1.40543e-14
-7.26308e-06
1.33384e-14
-7.26308e-06
-6.43264e-15
-7.26308e-06
1.33383e-15
-7.26308e-06
-7.68722e-15
-7.26308e-06
-1.16656e-14
-7.26308e-06
2.80746e-14
-7.26308e-06
-1.01495e-14
-4.50356e-15
-7.65568e-06
-1.06803e-14
-7.65568e-06
-2.78082e-15
-7.65568e-06
4.27589e-15
-7.65568e-06
5.23355e-15
-7.65568e-06
7.9662e-15
-7.65568e-06
-6.9689e-15
-7.65568e-06
-8.19553e-15
-7.65568e-06
2.51787e-14
-7.65568e-06
-3.18234e-14
-7.65568e-06
2.13606e-14
-7.65568e-06
4.95873e-15
-1.15124e-14
-3.33709e-06
6.20501e-15
-3.33709e-06
-1.39218e-15
-3.33709e-06
-1.89769e-15
-3.33709e-06
-8.07275e-15
-3.33709e-06
6.00907e-15
-3.33709e-06
-1.69583e-15
-3.33709e-06
3.85163e-15
-3.33709e-06
-7.92457e-15
-3.33709e-06
1.0206e-14
-3.33709e-06
-4.52039e-15
-3.33709e-06
6.52315e-15
-1.06841e-14
-3.33709e-06
-3.72969e-06
-6.31433e-15
-3.72969e-06
5.17686e-15
-3.72969e-06
1.27968e-15
-3.72969e-06
-1.31784e-15
-3.72969e-06
-6.09067e-15
-3.72969e-06
9.20268e-16
-3.72969e-06
-1.64616e-15
-3.72969e-06
3.26143e-15
-3.72969e-06
-1.32907e-15
-3.72969e-06
6.49442e-15
-3.72969e-06
1.18017e-15
-8.67897e-16
-3.72969e-06
-4.12229e-06
-4.12507e-15
-4.12229e-06
-4.03427e-15
-4.12229e-06
4.90921e-15
-4.12229e-06
6.96747e-15
-4.12229e-06
-4.38629e-15
-4.12229e-06
2.37699e-15
-4.12229e-06
-5.18143e-15
-4.12229e-06
5.39861e-15
-4.12229e-06
2.2394e-15
-4.12229e-06
-7.33631e-15
-4.12229e-06
-2.18765e-15
-1.06585e-15
-4.12229e-06
-4.51489e-06
-1.54623e-15
-4.51489e-06
3.79253e-15
-4.51489e-06
-9.50813e-15
-4.51489e-06
-1.90723e-15
-4.51489e-06
1.64291e-14
-4.51489e-06
-8.28036e-15
-4.51489e-06
3.03265e-15
-4.51489e-06
9.67409e-16
-4.51489e-06
-2.29033e-15
-4.51489e-06
6.81962e-15
-4.51489e-06
-6.97156e-15
-2.12698e-15
-4.51489e-06
-4.90749e-06
1.52496e-15
-4.90749e-06
-7.52202e-15
-4.90749e-06
1.41271e-14
-4.90749e-06
-1.21416e-14
-4.90749e-06
4.48167e-15
-4.90749e-06
-1.25119e-14
-4.90749e-06
2.19698e-15
-4.90749e-06
3.81809e-15
-4.90749e-06
2.59862e-15
-4.90749e-06
7.24958e-15
-4.90749e-06
1.78851e-15
-1.46055e-15
-4.90749e-06
-5.30009e-06
5.23219e-15
-5.30009e-06
1.31469e-15
-5.30009e-06
-2.12714e-15
-5.30009e-06
-2.36291e-15
-5.30009e-06
2.11719e-15
-5.30009e-06
-1.94403e-16
-5.30009e-06
-7.8134e-15
-5.30009e-06
-1.63051e-15
-5.30009e-06
3.34208e-15
-5.30009e-06
-1.17915e-14
-5.30009e-06
1.08735e-14
-1.71438e-15
-5.30009e-06
-5.69269e-06
9.29824e-15
-5.69269e-06
-1.17039e-14
-5.69269e-06
2.49578e-15
-5.69269e-06
8.33645e-15
-5.69269e-06
-1.47587e-14
-5.69269e-06
6.99142e-15
-5.69269e-06
1.29034e-14
-5.69269e-06
-9.69592e-15
-5.69269e-06
-1.09579e-14
-5.69269e-06
5.89482e-15
-5.69269e-06
5.9189e-15
-3.04213e-15
-5.69269e-06
-6.08529e-06
-1.10516e-14
-6.08529e-06
2.33488e-14
-6.08529e-06
-1.7156e-14
-6.08529e-06
-5.08587e-15
-6.08529e-06
1.54589e-14
-6.08529e-06
-1.82711e-14
-6.08529e-06
1.24241e-14
-6.08529e-06
5.63017e-15
-6.08529e-06
2.89223e-15
-6.08529e-06
-1.47742e-14
-6.08529e-06
1.78101e-14
-1.99736e-14
-6.08529e-06
-6.47788e-06
-7.55769e-15
-6.47788e-06
9.59884e-15
-6.47788e-06
-1.19475e-14
-6.47788e-06
8.46554e-15
-6.47788e-06
-4.94518e-15
-6.47788e-06
1.34111e-14
-6.47788e-06
8.39899e-16
-6.47788e-06
-1.43391e-14
-6.47788e-06
9.71581e-15
-6.47788e-06
5.30139e-15
-6.47788e-06
-7.64386e-15
-2.51629e-15
-6.47788e-06
-6.87048e-06
-3.57142e-15
-6.87048e-06
-5.57147e-15
-6.87048e-06
2.08036e-14
-6.87048e-06
-3.52385e-15
-6.87048e-06
-1.09641e-15
-6.87048e-06
-1.47447e-14
-6.87048e-06
2.47343e-14
-6.87048e-06
-2.25656e-14
-6.87048e-06
1.09862e-14
-6.87048e-06
-1.95851e-14
-6.87048e-06
3.4103e-15
1.71417e-14
-6.87048e-06
-7.26308e-06
1.10224e-15
-7.26308e-06
6.89696e-15
-7.26308e-06
-1.5748e-15
-7.26308e-06
-1.64574e-14
-7.26308e-06
-5.81184e-15
-7.26308e-06
3.07129e-14
-7.26308e-06
-1.44668e-14
-7.26308e-06
6.06936e-15
-7.26308e-06
-6.81919e-15
-7.26308e-06
2.79637e-15
-7.26308e-06
-3.65985e-15
1.65673e-14
-7.26308e-06
-7.65568e-06
6.08337e-15
-7.65568e-06
-1.02233e-14
-7.65568e-06
4.70878e-15
-7.65568e-06
-8.52294e-15
-7.65568e-06
6.61085e-15
-7.65568e-06
1.6857e-16
-7.65568e-06
1.12663e-14
-7.65568e-06
-1.81455e-15
-7.65568e-06
-1.5067e-14
-7.65568e-06
2.73069e-15
-7.65568e-06
1.05183e-14
-7.65568e-06
-2.56803e-14
-3.33709e-06
1.08521e-14
-3.33709e-06
-1.37408e-14
-3.33709e-06
-7.49578e-17
-3.33709e-06
7.1196e-15
-3.33709e-06
-5.77871e-15
-3.33709e-06
1.11255e-14
-3.33709e-06
-6.83006e-15
-3.33709e-06
3.17854e-16
-3.33709e-06
3.3173e-15
-3.33709e-06
-6.85047e-16
-3.33709e-06
1.47907e-15
-3.7092e-15
-3.72969e-06
-3.97954e-16
-3.72969e-06
-1.08618e-15
-3.72969e-06
-8.1218e-16
-3.72969e-06
3.13045e-15
-3.72969e-06
3.93198e-15
-3.72969e-06
-1.1271e-15
-3.72969e-06
2.9866e-15
-3.72969e-06
-2.85789e-15
-3.72969e-06
-4.37245e-15
-3.72969e-06
-4.35436e-15
-3.72969e-06
1.04869e-14
-6.27475e-15
-4.12229e-06
1.10632e-14
-4.12229e-06
-9.09874e-15
-4.12229e-06
-7.76349e-16
-4.12229e-06
7.78238e-15
-4.12229e-06
-6.65593e-15
-4.12229e-06
6.9528e-15
-4.12229e-06
-2.10028e-15
-4.12229e-06
-6.55688e-15
-4.12229e-06
2.56479e-15
-4.12229e-06
8.60974e-15
-4.12229e-06
-1.3213e-14
7.8534e-15
-4.51489e-06
-2.87808e-15
-4.51489e-06
7.09183e-15
-4.51489e-06
-1.72159e-15
-4.51489e-06
-4.14405e-15
-4.51489e-06
-4.00789e-15
-4.51489e-06
7.46629e-15
-4.51489e-06
-8.05097e-15
-4.51489e-06
7.4442e-15
-4.51489e-06
-6.87205e-15
-4.51489e-06
5.0806e-15
-4.51489e-06
-3.80205e-15
5.98322e-15
-4.90749e-06
-3.9616e-15
-4.90749e-06
1.07697e-14
-4.90749e-06
-1.41547e-14
-4.90749e-06
6.38397e-16
-4.90749e-06
9.90288e-16
-4.90749e-06
-1.32038e-15
-4.90749e-06
3.7139e-15
-4.90749e-06
5.20261e-15
-4.90749e-06
2.10232e-15
-4.90749e-06
1.05045e-15
-4.90749e-06
-1.27293e-14
3.5489e-15
-5.30009e-06
8.33768e-15
-5.30009e-06
3.57214e-15
-5.30009e-06
-2.88004e-15
-5.30009e-06
-6.0048e-15
-5.30009e-06
-3.1855e-15
-5.30009e-06
-1.56032e-15
-5.30009e-06
-2.72011e-15
-5.30009e-06
1.39643e-15
-5.30009e-06
1.22188e-14
-5.30009e-06
-3.89921e-15
-5.30009e-06
-1.32763e-15
8.07064e-16
-5.69269e-06
7.95976e-15
-5.69269e-06
-1.12991e-14
-5.69269e-06
1.42212e-15
-5.69269e-06
-5.17024e-16
-5.69269e-06
1.3158e-14
-5.69269e-06
-1.18378e-15
-5.69269e-06
-9.57114e-15
-5.69269e-06
-2.56323e-15
-5.69269e-06
1.00403e-15
-5.69269e-06
-9.26009e-15
-5.69269e-06
1.15352e-14
-2.36541e-15
-6.08529e-06
6.32806e-15
-6.08529e-06
-4.65796e-15
-6.08529e-06
1.56466e-14
-6.08529e-06
-8.19985e-15
-6.08529e-06
-1.93731e-15
-6.08529e-06
9.69226e-15
-6.08529e-06
-9.81226e-15
-6.08529e-06
1.12534e-14
-6.08529e-06
-1.44237e-14
-6.08529e-06
9.28489e-15
-6.08529e-06
1.70681e-15
-6.13297e-15
-6.47788e-06
5.62029e-15
-6.47788e-06
-9.12358e-16
-6.47788e-06
5.53538e-16
-6.47788e-06
-2.0068e-15
-6.47788e-06
-7.2215e-15
-6.47788e-06
1.013e-14
-6.47788e-06
6.69478e-15
-6.47788e-06
-1.774e-14
-6.47788e-06
-3.40733e-15
-6.47788e-06
3.23595e-15
-6.47788e-06
1.68474e-14
-1.01771e-14
-6.87048e-06
-1.64696e-14
-6.87048e-06
7.35261e-15
-6.87048e-06
1.6482e-14
-6.87048e-06
-1.07292e-14
-6.87048e-06
-2.63316e-16
-6.87048e-06
-2.30171e-15
-6.87048e-06
-1.55098e-15
-6.87048e-06
-3.47224e-15
-6.87048e-06
1.61956e-14
-6.87048e-06
-2.74019e-15
-6.87048e-06
-2.22903e-14
1.33698e-14
-7.26308e-06
-1.86177e-14
-7.26308e-06
1.22728e-14
-7.26308e-06
-2.53731e-14
-7.26308e-06
2.09781e-14
-7.26308e-06
-6.04848e-15
-7.26308e-06
-2.61733e-15
-7.26308e-06
1.74973e-14
-7.26308e-06
-8.0348e-15
-7.26308e-06
1.01227e-15
-7.26308e-06
-9.33005e-15
-7.26308e-06
-7.11552e-15
1.00211e-14
-7.65568e-06
2.0617e-14
-7.65568e-06
-4.34472e-15
-7.65568e-06
-3.24872e-15
-7.65568e-06
1.02571e-15
-7.65568e-06
-1.48363e-14
-7.65568e-06
1.09386e-14
-7.65568e-06
8.8186e-15
-7.65568e-06
-1.3654e-14
-7.65568e-06
1.44738e-14
-7.65568e-06
1.41317e-14
-7.65568e-06
-2.07369e-14
6.03629e-15
-8.04828e-06
-8.60514e-16
-8.04828e-06
-9.33868e-15
-8.04828e-06
-3.77919e-15
-8.04828e-06
-1.84579e-15
-8.04828e-06
1.00821e-15
-8.04828e-06
3.07145e-14
-8.04828e-06
-2.63491e-14
-8.04828e-06
-6.69565e-15
-8.04828e-06
2.18431e-14
-8.04828e-06
-6.21257e-15
-8.04828e-06
-1.88239e-15
1.60195e-14
-8.04828e-06
-8.44088e-06
5.6437e-15
-8.44088e-06
5.91215e-15
-8.44088e-06
-2.62729e-14
-8.44088e-06
9.94871e-15
-8.44088e-06
6.11585e-15
-8.44088e-06
1.00215e-14
-8.44088e-06
3.59937e-15
-8.44088e-06
-3.13186e-14
-8.44088e-06
3.33997e-14
-8.44088e-06
-2.59367e-14
-8.44088e-06
1.38359e-14
-6.21955e-15
-8.44088e-06
-8.83348e-06
1.25067e-14
-8.83348e-06
-1.29841e-14
-8.83348e-06
1.33936e-14
-8.83348e-06
3.79316e-15
-8.83348e-06
-3.18672e-14
-8.83348e-06
2.15165e-14
-8.83348e-06
-1.19848e-14
-8.83348e-06
-9.78174e-15
-8.83348e-06
2.58456e-14
-8.83348e-06
-2.73604e-14
-8.83348e-06
7.17622e-15
-6.73466e-15
-8.83348e-06
-9.22608e-06
-9.22608e-06
-9.22608e-06
-9.22608e-06
-9.22608e-06
-9.22608e-06
-9.22608e-06
-9.22608e-06
-9.22608e-06
-9.22608e-06
-9.22608e-06
-9.22608e-06
-8.04828e-06
-1.25772e-14
-8.04828e-06
2.06672e-15
-8.04828e-06
-1.53628e-14
-8.04828e-06
1.37786e-14
-8.04828e-06
1.98659e-15
-8.04828e-06
-7.52481e-15
-8.04828e-06
-8.08434e-15
-8.04828e-06
1.0381e-14
-8.04828e-06
2.07292e-14
-8.04828e-06
-2.08776e-14
-8.04828e-06
-1.06303e-14
1.34935e-14
-8.04828e-06
-8.44088e-06
9.82572e-15
-8.44088e-06
-1.36428e-14
-8.44088e-06
3.33403e-15
-8.44088e-06
2.11926e-14
-8.44088e-06
-3.71553e-14
-8.44088e-06
2.04012e-14
-8.44088e-06
1.15704e-14
-8.44088e-06
-2.97192e-14
-8.44088e-06
3.42634e-14
-8.44088e-06
-3.15565e-14
-8.44088e-06
6.07017e-15
6.68699e-15
-8.44088e-06
-8.83348e-06
7.16403e-15
-8.83348e-06
1.83544e-14
-8.83348e-06
-1.82577e-14
-8.83348e-06
-5.19582e-17
-8.83348e-06
1.78447e-14
-8.83348e-06
-1.12931e-14
-8.83348e-06
1.05691e-15
-8.83348e-06
7.19087e-15
-8.83348e-06
7.00357e-15
-8.83348e-06
-7.30655e-16
-8.83348e-06
-1.10037e-14
-7.96727e-16
-8.83348e-06
-9.22608e-06
-9.22608e-06
-9.22608e-06
-9.22608e-06
-9.22608e-06
-9.22608e-06
-9.22608e-06
-9.22608e-06
-9.22608e-06
-9.22608e-06
-9.22608e-06
-9.22608e-06
-8.04828e-06
1.17725e-14
-8.04828e-06
2.95804e-15
-8.04828e-06
-2.19234e-14
-8.04828e-06
1.01137e-14
-8.04828e-06
1.1771e-14
-8.04828e-06
-2.09716e-14
-8.04828e-06
-2.54888e-15
-8.04828e-06
2.56947e-15
-8.04828e-06
1.9806e-14
-8.04828e-06
1.38673e-15
-8.04828e-06
-2.1774e-14
-3.85731e-15
-8.04828e-06
-8.44088e-06
-1.67263e-14
-8.44088e-06
1.83421e-14
-8.44088e-06
-1.59643e-14
-8.44088e-06
2.92179e-14
-8.44088e-06
-1.53241e-14
-8.44088e-06
2.05081e-14
-8.44088e-06
-1.86664e-14
-8.44088e-06
-6.3318e-15
-8.44088e-06
-7.12294e-15
-8.44088e-06
-6.19028e-16
-8.44088e-06
1.72245e-14
-5.80883e-15
-8.44088e-06
-8.83348e-06
-1.1825e-14
-8.83348e-06
-9.3001e-16
-8.83348e-06
2.60566e-14
-8.83348e-06
-2.02986e-14
-8.83348e-06
2.41573e-14
-8.83348e-06
-1.55447e-14
-8.83348e-06
1.09537e-14
-8.83348e-06
-2.8329e-15
-8.83348e-06
2.92575e-16
-8.83348e-06
-2.26861e-15
-8.83348e-06
5.87863e-15
-4.5802e-15
-8.83348e-06
-9.22608e-06
-9.22608e-06
-9.22608e-06
-9.22608e-06
-9.22608e-06
-9.22608e-06
-9.22608e-06
-9.22608e-06
-9.22608e-06
-9.22608e-06
-9.22608e-06
-9.22608e-06
-8.04828e-06
2.0285e-14
-8.04828e-06
-1.96513e-14
-8.04828e-06
-3.18773e-15
-8.04828e-06
9.36032e-15
-8.04828e-06
7.62125e-15
-8.04828e-06
1.21686e-14
-8.04828e-06
-3.12881e-14
-8.04828e-06
1.20619e-14
-8.04828e-06
-3.86539e-15
-8.04828e-06
8.57942e-15
-8.04828e-06
-3.20241e-15
1.8159e-15
-8.44088e-06
-6.15199e-15
-8.44088e-06
1.0612e-14
-8.44088e-06
-4.94311e-15
-8.44088e-06
-7.10404e-16
-8.44088e-06
1.30254e-15
-8.44088e-06
1.25307e-14
-8.44088e-06
-1.06222e-14
-8.44088e-06
7.5767e-15
-8.44088e-06
-2.26719e-14
-8.44088e-06
1.08293e-15
-8.44088e-06
1.61007e-14
-2.83518e-15
-8.83348e-06
-7.92432e-15
-8.83348e-06
-5.43204e-15
-8.83348e-06
-4.92307e-15
-8.83348e-06
8.32952e-15
-8.83348e-06
1.07955e-14
-8.83348e-06
-3.54617e-15
-8.83348e-06
-2.21445e-14
-8.83348e-06
1.94535e-15
-8.83348e-06
2.7142e-14
-8.83348e-06
-6.27582e-15
-8.83348e-06
1.12724e-15
-8.15315e-15
-9.22608e-06
-9.22608e-06
-9.22608e-06
-9.22608e-06
-9.22608e-06
-9.22608e-06
-9.22608e-06
-9.22608e-06
-9.22608e-06
-9.22608e-06
-9.22608e-06
)
;

boundaryField
{
    rotor
    {
        type            calculated;
        value           nonuniform List<scalar> 
96
(
6.1141e-15
-8.69994e-15
1.26055e-15
-1.8267e-15
5.8879e-15
1.51738e-15
-9.57215e-15
6.90983e-15
1.53722e-15
4.91649e-16
-3.52115e-15
-2.3534e-15
-3.60604e-15
6.47074e-15
2.47081e-15
1.42546e-15
-5.07095e-15
5.59364e-16
9.07459e-16
-3.29959e-15
4.8156e-15
1.54836e-15
-8.10393e-16
-3.15608e-15
-3.46415e-15
6.61769e-15
-8.22227e-15
8.37033e-16
8.80137e-15
-7.66463e-15
4.28948e-15
-1.8907e-15
3.87173e-15
-6.51291e-15
9.39546e-15
-8.31284e-15
7.00148e-15
-1.17847e-14
1.01188e-14
-3.17298e-15
-7.13214e-17
4.41679e-15
-8.9717e-15
9.04506e-15
-9.39539e-15
1.01901e-14
-6.61347e-15
1.49215e-15
3.33709e-06
3.72969e-06
4.12229e-06
4.51489e-06
4.90749e-06
5.30009e-06
5.69269e-06
6.08529e-06
6.47788e-06
6.87048e-06
7.26308e-06
7.65568e-06
3.33709e-06
3.72969e-06
4.12229e-06
4.51489e-06
4.90749e-06
5.30009e-06
5.69269e-06
6.08529e-06
6.47788e-06
6.87048e-06
7.26308e-06
7.65568e-06
-3.33709e-06
-3.72969e-06
-4.12229e-06
-4.51489e-06
-4.90749e-06
-5.30009e-06
-5.69269e-06
-6.08529e-06
-6.47788e-06
-6.87048e-06
-7.26308e-06
-7.65568e-06
-3.33709e-06
-3.72969e-06
-4.12229e-06
-4.51489e-06
-4.90749e-06
-5.30009e-06
-5.69269e-06
-6.08529e-06
-6.47788e-06
-6.87048e-06
-7.26308e-06
-7.65568e-06
)
;
    }
    stator
    {
        type            calculated;
        value           nonuniform 0();
    }
    AMI1
    {
        type            cyclicAMI;
        value           nonuniform List<scalar> 
48
(
-1.74181e-14
3.81554e-15
2.70008e-14
-1.94846e-14
2.07871e-14
-1.38327e-14
4.86432e-15
1.25891e-14
-1.51373e-14
-2.88054e-14
2.47332e-14
-5.4699e-15
5.91792e-15
1.90743e-15
2.14318e-15
-1.15267e-14
1.13316e-14
2.40192e-15
-1.27248e-14
-1.08469e-14
3.07507e-14
-1.13276e-14
7.53525e-15
-9.20409e-15
-6.18491e-15
1.51701e-14
-2.5378e-15
-1.06204e-14
-7.32224e-15
7.41384e-15
-5.00245e-15
2.10027e-14
-9.16132e-15
-2.62262e-15
-1.47116e-15
2.16287e-14
-3.81628e-14
2.83673e-14
-6.88637e-15
-2.78087e-15
3.97589e-15
-3.93753e-15
1.06247e-15
-3.48955e-15
8.00658e-15
-1.51723e-14
2.24006e-14
-1.36759e-14
)
;
    }
    AMI2
    {
        type            cyclicAMI;
        value           nonuniform 0();
    }
    front
    {
        type            empty;
        value           nonuniform 0();
    }
    back
    {
        type            empty;
        value           nonuniform 0();
    }
    procBoundary3to2
    {
        type            processor;
        value           nonuniform List<scalar> 8(8.04828e-06 8.44088e-06 8.83348e-06 9.22608e-06 -8.04828e-06 -8.44088e-06 -8.83348e-06 -9.22608e-06);
    }
}


// ************************************************************************* //
