/*--------------------------------*- C++ -*----------------------------------*\
| =========                 |                                                 |
| \\      /  F ield         | OpenFOAM: The Open Source CFD Toolbox           |
|  \\    /   O peration     | Version:  v1806                                 |
|   \\  /    A nd           | Web:      www.OpenFOAM.com                      |
|    \\/     M anipulation  |                                                 |
\*---------------------------------------------------------------------------*/
FoamFile
{
    version     2.0;
    format      ascii;
    class       surfaceScalarField;
    location    "5";
    object      phi;
}
// * * * * * * * * * * * * * * * * * * * * * * * * * * * * * * * * * * * * * //

dimensions      [0 3 -1 0 0 0 0];
oriented        oriented;


internalField   nonuniform List<scalar> 
1460
(
2.14639e-08
-2.14639e-08
1.00151e-07
-7.8687e-08
1.77678e-07
-7.7527e-08
2.67313e-07
-8.96351e-08
3.56334e-07
-8.90213e-08
4.39684e-07
-8.33504e-08
5.16544e-07
-7.68596e-08
5.76743e-07
-6.01989e-08
6.03169e-07
-2.64257e-08
5.73387e-07
2.97814e-08
4.88474e-07
8.49132e-08
1.2612e-07
3.62354e-07
-5.1027e-08
2.9563e-08
-3.7974e-08
-9.174e-08
1.11775e-08
-1.26679e-07
6.37433e-08
-1.42201e-07
1.12457e-07
-1.37735e-07
1.50957e-07
-1.21851e-07
1.7628e-07
-1.02182e-07
1.72142e-07
-5.60614e-08
1.15089e-07
3.06275e-08
-1.71577e-08
1.62028e-07
-2.29597e-07
2.97352e-07
3.97547e-07
-5.01024e-07
1.02498e-07
-7.29347e-08
1.521e-07
-1.41342e-07
2.00285e-07
-1.74864e-07
2.40724e-07
-1.8264e-07
2.5952e-07
-1.5653e-07
2.40443e-07
-1.02773e-07
1.70302e-07
-3.20414e-08
4.13261e-08
7.29141e-08
-1.50983e-07
2.22936e-07
-3.9887e-07
4.09915e-07
-6.83051e-07
5.81533e-07
6.86452e-07
-9.71956e-07
4.79794e-08
-1.20914e-07
1.12254e-07
-2.05617e-07
1.5974e-07
-2.2235e-07
1.96072e-07
-2.18972e-07
2.23602e-07
-1.8406e-07
2.18223e-07
-9.73949e-08
1.50244e-07
3.5938e-08
4.2307e-09
2.18927e-07
-2.2289e-07
4.50057e-07
-5.04215e-07
6.9124e-07
-7.98137e-07
8.75455e-07
9.5707e-07
-1.06876e-06
5.27061e-08
-1.7362e-07
1.09999e-07
-2.62909e-07
1.53078e-07
-2.6543e-07
1.81821e-07
-2.47716e-07
1.88018e-07
-1.90257e-07
1.71152e-07
-8.05287e-08
1.15367e-07
9.17228e-08
-2.79784e-09
3.37092e-07
-1.92571e-07
6.3983e-07
-4.30031e-07
9.287e-07
-6.72709e-07
1.11813e-06
1.16742e-06
-8.8306e-07
4.14253e-08
-2.15046e-07
7.27476e-08
-2.94232e-07
9.93608e-08
-2.92043e-07
1.21543e-07
-2.69898e-07
1.36176e-07
-2.0489e-07
1.32621e-07
-7.69735e-08
1.04855e-07
1.19488e-07
3.77322e-08
4.04215e-07
-7.71908e-08
7.54753e-07
-2.29615e-07
1.08112e-06
-3.89756e-07
1.27827e-06
1.30326e-06
-5.25598e-07
1.68521e-08
-2.31898e-07
1.36285e-08
-2.91008e-07
1.50477e-08
-2.93462e-07
2.64927e-08
-2.81343e-07
4.59527e-08
-2.2435e-07
7.27271e-08
-1.03748e-07
9.45996e-08
9.76159e-08
1.02524e-07
3.96291e-07
8.73079e-08
7.69969e-07
4.36867e-08
1.12475e-06
-1.94522e-08
1.34141e-06
1.36685e-06
-8.30422e-08
-2.62052e-08
-2.05693e-07
-7.39595e-08
-2.43254e-07
-1.01437e-07
-2.65985e-07
-9.99761e-08
-2.82805e-07
-6.44946e-08
-2.59831e-07
9.04459e-10
-1.69147e-07
8.34047e-08
1.51157e-08
1.74861e-07
3.04835e-07
2.65996e-07
6.78833e-07
3.39527e-07
1.05122e-06
3.81126e-07
1.29981e-06
1.35672e-06
3.91263e-07
-9.20953e-08
-1.13597e-07
-1.79987e-07
-1.55363e-07
-2.19421e-07
-2.2655e-07
-2.14031e-07
-2.88195e-07
-1.58155e-07
-3.15706e-07
-5.14909e-08
-2.75812e-07
9.10706e-08
-1.27446e-07
2.58949e-07
1.36956e-07
4.41774e-07
4.96009e-07
6.19179e-07
8.7381e-07
7.6109e-07
1.1579e-06
1.27027e-06
8.47536e-07
-1.69438e-07
5.58405e-08
-2.59407e-07
-6.53936e-08
-2.71746e-07
-2.14211e-07
-2.35194e-07
-3.24747e-07
-1.29139e-07
-4.21761e-07
1.54992e-08
-4.2045e-07
1.90924e-07
-3.0287e-07
3.98311e-07
-7.04314e-08
6.3065e-07
2.6367e-07
8.70249e-07
6.34211e-07
1.08238e-06
9.45777e-07
1.12135e-06
1.23129e-06
-1.34715e-07
1.90555e-07
-8.99719e-08
-1.10137e-07
-2.78956e-08
-2.76288e-07
8.41691e-08
-4.36812e-07
2.25841e-07
-5.63433e-07
3.90888e-07
-5.85497e-07
5.53868e-07
-4.6585e-07
7.30197e-07
-2.4676e-07
9.32004e-07
6.18626e-08
1.15607e-06
4.10148e-07
1.37527e-06
7.26577e-07
9.49143e-07
1.54748e-06
6.43287e-07
-4.52732e-07
1.00064e-06
-4.67494e-07
1.19063e-06
-4.66278e-07
1.3097e-06
-5.55879e-07
1.3679e-06
-6.21633e-07
1.39443e-06
-6.12021e-07
1.43592e-06
-5.07347e-07
1.49128e-06
-3.02117e-07
1.57639e-06
-2.32484e-08
1.69657e-06
2.89974e-07
1.84098e-06
5.82158e-07
1.9798e-06
8.10331e-07
2.0561e-07
1.56744e-07
3.0469e-08
1.75141e-07
-1.39202e-07
1.69671e-07
-2.69898e-07
1.30696e-07
-3.32465e-07
6.25668e-08
-3.16604e-07
-1.58612e-08
-2.26719e-07
-8.98848e-08
-7.17146e-08
-1.55004e-07
7.37858e-08
-1.455e-07
1.24303e-07
-5.05174e-08
8.30492e-08
4.12541e-08
8.30492e-08
-7.89357e-07
4.45078e-07
-1.04666e-06
4.32441e-07
-1.23478e-06
3.57795e-07
-1.33187e-06
2.27788e-07
-1.32807e-06
5.87629e-08
-1.20081e-06
-1.43125e-07
-9.8897e-07
-3.0172e-07
-7.14346e-07
-4.29629e-07
-4.05543e-07
-4.54303e-07
-1.24339e-07
-3.31721e-07
3.53312e-08
-1.18416e-07
1.1838e-07
-1.2322e-06
7.05318e-07
-1.44051e-06
6.40752e-07
-1.5867e-06
5.03987e-07
-1.66819e-06
3.09279e-07
-1.67983e-06
7.04006e-08
-1.63071e-06
-1.92242e-07
-1.46213e-06
-4.70299e-07
-1.18175e-06
-7.10005e-07
-7.87667e-07
-8.48391e-07
-3.45057e-07
-7.74331e-07
-5.27324e-08
-4.10741e-07
6.56481e-08
-1.29392e-06
9.30488e-07
-1.46391e-06
8.10734e-07
-1.57724e-06
6.17318e-07
-1.6381e-06
3.70143e-07
-1.65571e-06
8.80106e-08
-1.63392e-06
-2.14036e-07
-1.57064e-06
-5.3358e-07
-1.42175e-06
-8.58888e-07
-1.12855e-06
-1.1416e-06
-6.66983e-07
-1.2359e-06
-1.76216e-07
-9.01508e-07
-1.10568e-07
-1.0395e-06
1.08693e-06
-1.13685e-06
9.08088e-07
-1.18494e-06
6.65409e-07
-1.20457e-06
3.89774e-07
-1.2177e-06
1.01137e-07
-1.23875e-06
-1.92989e-07
-1.26265e-06
-5.0968e-07
-1.26529e-06
-8.56242e-07
-1.17018e-06
-1.23671e-06
-8.63853e-07
-1.54222e-06
-3.44456e-07
-1.4209e-06
-4.55024e-07
-6.18943e-07
1.18027e-06
-6.70966e-07
9.60111e-07
-6.97945e-07
6.92388e-07
-7.18759e-07
4.10588e-07
-7.45798e-07
1.28177e-07
-7.86257e-07
-1.52531e-07
-8.4832e-07
-4.47616e-07
-9.27007e-07
-7.77555e-07
-9.82458e-07
-1.18126e-06
-8.88886e-07
-1.63579e-06
-4.90265e-07
-1.81953e-06
-9.45289e-07
-1.33004e-07
1.23023e-06
-1.70214e-07
9.97321e-07
-2.06624e-07
7.28798e-07
-2.53246e-07
4.57209e-07
-3.15484e-07
1.90415e-07
-3.95256e-07
-7.27583e-08
-4.91676e-07
-3.51197e-07
-5.9713e-07
-6.72101e-07
-7.04959e-07
-1.07343e-06
-7.54732e-07
-1.58602e-06
-5.31382e-07
-2.04288e-06
-1.47667e-06
3.78766e-07
1.24273e-06
3.48401e-07
1.02769e-06
2.98362e-07
7.78838e-07
2.23963e-07
5.31608e-07
1.20407e-07
2.93971e-07
-9.66308e-09
5.73117e-08
-1.56709e-07
-2.04151e-07
-2.92601e-07
-5.36208e-07
-4.09607e-07
-9.56426e-07
-5.09778e-07
-1.48585e-06
-4.5437e-07
-2.09828e-06
-1.93104e-06
8.76563e-07
1.2137e-06
8.55494e-07
1.04875e-06
7.91899e-07
8.42432e-07
6.88907e-07
6.34601e-07
5.47983e-07
4.34895e-07
3.80655e-07
2.2464e-07
2.11485e-07
-3.49814e-08
5.77215e-08
-3.82445e-07
-6.7096e-08
-8.31609e-07
-1.75993e-07
-1.37695e-06
-2.55353e-07
-2.01892e-06
-2.18639e-06
1.29986e-06
1.14514e-06
1.29077e-06
1.05785e-06
1.21743e-06
9.1577e-07
1.0964e-06
7.55628e-07
9.48354e-07
5.82943e-07
7.98395e-07
3.74598e-07
6.61859e-07
1.01555e-07
5.35221e-07
-2.55806e-07
4.05645e-07
-7.02033e-07
2.56836e-07
-1.22814e-06
6.8716e-08
-1.8308e-06
-2.11768e-06
1.64288e-06
1.04974e-06
1.65691e-06
1.04381e-06
1.6064e-06
9.66285e-07
1.52029e-06
8.41735e-07
1.43047e-06
6.72766e-07
1.35842e-06
4.46649e-07
1.30311e-06
1.56858e-07
1.23562e-06
-1.88311e-07
1.11027e-06
-5.76683e-07
8.72095e-07
-9.89969e-07
5.058e-07
-1.46451e-06
-1.61188e-06
2.08205e-06
9.47486e-07
2.13594e-06
9.89921e-07
2.15193e-06
9.50298e-07
2.15407e-06
8.39597e-07
2.1644e-06
6.62433e-07
2.18763e-06
4.23417e-07
2.20834e-06
1.36144e-07
2.19623e-06
-1.76193e-07
2.10636e-06
-4.86817e-07
1.85041e-06
-7.34019e-07
1.21113e-06
-8.25231e-07
-4.00746e-07
6.31885e-08
-6.31885e-08
1.55983e-07
-9.27945e-08
2.46128e-07
-9.01448e-08
3.29079e-07
-8.29512e-08
4.06335e-07
-7.72556e-08
4.80174e-07
-7.3839e-08
5.49006e-07
-6.88323e-08
5.99884e-07
-5.08781e-08
6.1485e-07
-1.49657e-08
5.73859e-07
4.09911e-08
4.81488e-07
9.23705e-08
1.32167e-07
3.49321e-07
-2.19209e-08
-4.12675e-08
1.77556e-09
-1.16491e-07
3.78271e-08
-1.26196e-07
8.07492e-08
-1.25873e-07
1.23863e-07
-1.2037e-07
1.57723e-07
-1.07698e-07
1.78802e-07
-8.99121e-08
1.6754e-07
-3.96153e-08
9.98437e-08
5.27304e-08
-4.56098e-08
1.86445e-07
-2.71994e-07
3.18755e-07
4.15479e-07
-5.55306e-07
6.04533e-08
-1.01721e-07
1.1347e-07
-1.69508e-07
1.63606e-07
-1.76332e-07
2.04927e-07
-1.67193e-07
2.1628e-07
-1.31723e-07
1.95073e-07
-8.64918e-08
1.20611e-07
-1.54499e-08
-1.18006e-08
9.27966e-08
-2.09382e-07
2.50311e-07
-4.63451e-07
4.40514e-07
-7.52309e-07
6.07613e-07
7.04658e-07
-1.04149e-06
3.96724e-08
-1.41393e-07
8.48441e-08
-2.1468e-07
1.29857e-07
-2.21345e-07
1.68983e-07
-2.06319e-07
2.008e-07
-1.6354e-07
1.81855e-07
-6.75473e-08
1.00448e-07
6.59581e-08
-5.79558e-08
2.512e-07
-2.93084e-07
4.85439e-07
-5.7542e-07
7.2285e-07
-8.6356e-07
8.95753e-07
9.64065e-07
-1.12297e-06
3.79777e-08
-1.79371e-07
8.66016e-08
-2.63304e-07
1.24252e-07
-2.58995e-07
1.4981e-07
-2.31878e-07
1.53252e-07
-1.66982e-07
1.36332e-07
-5.06272e-08
7.47239e-08
1.27566e-07
-5.24842e-08
3.78408e-07
-2.4764e-07
6.80596e-07
-4.82285e-07
9.57494e-07
-7.14213e-07
1.12768e-06
1.15883e-06
-9.0898e-07
3.49986e-08
-2.14369e-07
5.8917e-08
-2.87222e-07
8.07559e-08
-2.80834e-07
1.02125e-07
-2.53247e-07
1.13373e-07
-1.78229e-07
1.09789e-07
-4.70441e-08
8.06818e-08
1.56674e-07
1.11476e-08
4.47942e-07
-1.04392e-07
7.96135e-07
-2.52333e-07
1.10543e-06
-4.02414e-07
1.27776e-06
1.28181e-06
-5.25391e-07
1.30194e-08
-2.27389e-07
6.24985e-09
-2.80452e-07
5.65987e-09
-2.80244e-07
1.59182e-08
-2.63506e-07
3.8418e-08
-2.00729e-07
6.69043e-08
-7.55303e-08
9.15707e-08
1.32008e-07
1.02893e-07
4.3662e-07
9.10825e-08
8.07946e-07
5.1381e-08
1.14514e-06
-6.37009e-09
1.33551e-06
1.33949e-06
-6.40537e-08
-2.75422e-08
-1.99847e-07
-7.58664e-08
-2.32128e-07
-1.02139e-07
-2.53972e-07
-9.88652e-08
-2.66779e-07
-5.8573e-08
-2.41021e-07
1.17723e-08
-1.45876e-07
1.00425e-07
4.33549e-08
1.99492e-07
3.37553e-07
2.97364e-07
7.10075e-07
3.74182e-07
1.06832e-06
4.15805e-07
1.29389e-06
1.33135e-06
4.23947e-07
-9.01419e-08
-1.09705e-07
-1.7776e-07
-1.4451e-07
-2.17778e-07
-2.13953e-07
-2.0875e-07
-2.75807e-07
-1.46867e-07
-3.02904e-07
-3.07145e-08
-2.62029e-07
1.21968e-07
-1.09328e-07
3.00393e-07
1.59128e-07
4.92579e-07
5.17889e-07
6.74036e-07
8.86862e-07
8.13236e-07
1.15469e-06
1.25231e-06
8.92275e-07
-1.66292e-07
5.65872e-08
-2.58519e-07
-5.22833e-08
-2.73974e-07
-1.98499e-07
-2.36318e-07
-3.13462e-07
-1.25429e-07
-4.13793e-07
2.96952e-08
-4.17153e-07
2.20584e-07
-3.00217e-07
4.43544e-07
-6.38322e-08
6.89205e-07
2.72228e-07
9.36037e-07
6.4003e-07
1.14697e-06
9.43755e-07
1.11153e-06
1.28776e-06
-1.38629e-07
1.95216e-07
-9.79691e-08
-9.29429e-08
-3.49806e-08
-2.61487e-07
7.49528e-08
-4.23395e-07
2.20668e-07
-5.59508e-07
3.93254e-07
-5.89739e-07
5.68036e-07
-4.74999e-07
7.60381e-07
-2.56177e-07
9.80066e-07
5.25434e-08
1.21723e-06
4.02867e-07
1.44116e-06
7.19822e-07
9.43024e-07
1.60966e-06
6.23784e-07
-4.28568e-07
9.83849e-07
-4.53008e-07
1.18077e-06
-4.58405e-07
1.30994e-06
-5.52571e-07
1.3728e-06
-6.22364e-07
1.39981e-06
-6.1675e-07
1.44143e-06
-5.16618e-07
1.50177e-06
-3.16519e-07
1.5979e-06
-4.35896e-08
1.73155e-06
2.69225e-07
1.88615e-06
5.65222e-07
2.02811e-06
8.01056e-07
1.85451e-07
1.6387e-07
2.21352e-09
1.83238e-07
-1.74221e-07
1.76434e-07
-3.08248e-07
1.34028e-07
-3.69945e-07
6.16966e-08
-3.49916e-07
-2.00285e-08
-2.52189e-07
-9.77269e-08
-8.50501e-08
-1.67139e-07
7.13428e-08
-1.56393e-07
1.26283e-07
-5.49398e-08
8.50247e-08
4.12579e-08
8.50247e-08
-8.50837e-07
4.59402e-07
-1.10954e-06
4.41942e-07
-1.29422e-06
3.61111e-07
-1.38478e-06
2.24594e-07
-1.37254e-06
4.94506e-08
-1.23757e-06
-1.54993e-07
-1.01725e-06
-3.18056e-07
-7.35884e-07
-4.48501e-07
-4.19404e-07
-4.72873e-07
-1.28994e-07
-3.4535e-07
3.48498e-08
-1.22586e-07
1.19874e-07
-1.29708e-06
7.14991e-07
-1.49704e-06
6.41901e-07
-1.63344e-06
4.97517e-07
-1.7059e-06
2.97054e-07
-1.71132e-06
5.48706e-08
-1.65433e-06
-2.11985e-07
-1.48354e-06
-4.88848e-07
-1.20211e-06
-7.29929e-07
-8.05385e-07
-8.69598e-07
-3.56114e-07
-7.9462e-07
-5.47231e-08
-4.23977e-07
6.51514e-08
-1.33362e-06
9.25648e-07
-1.48831e-06
7.96587e-07
-1.58814e-06
5.97351e-07
-1.63933e-06
3.48244e-07
-1.65167e-06
6.72034e-08
-1.63087e-06
-2.32783e-07
-1.56998e-06
-5.49741e-07
-1.42562e-06
-8.74283e-07
-1.13629e-06
-1.15893e-06
-6.74884e-07
-1.25602e-06
-1.79179e-07
-9.19682e-07
-1.14028e-07
-1.04898e-06
1.06564e-06
-1.13276e-06
8.80368e-07
-1.17255e-06
6.37142e-07
-1.18935e-06
3.65049e-07
-1.2038e-06
8.16558e-08
-1.22688e-06
-2.09711e-07
-1.25567e-06
-5.20943e-07
-1.26357e-06
-8.66389e-07
-1.17293e-06
-1.24957e-06
-8.68873e-07
-1.56008e-06
-3.48772e-07
-1.43978e-06
-4.62799e-07
-6.07478e-07
1.14773e-06
-6.53518e-07
9.26409e-07
-6.80669e-07
6.64293e-07
-7.05615e-07
3.89994e-07
-7.37814e-07
1.13855e-07
-7.84739e-07
-1.62786e-07
-8.51661e-07
-4.54021e-07
-9.34338e-07
-7.83711e-07
-9.9167e-07
-1.19224e-06
-8.9682e-07
-1.65493e-06
-4.94339e-07
-1.84226e-06
-9.57139e-07
-1.10304e-07
1.19398e-06
-1.48111e-07
9.64215e-07
-1.89142e-07
7.05325e-07
-2.4248e-07
4.43332e-07
-3.12046e-07
1.83421e-07
-3.99526e-07
-7.53066e-08
-5.0241e-07
-3.51136e-07
-6.12556e-07
-6.73565e-07
-7.22386e-07
-1.08241e-06
-7.69692e-07
-1.60763e-06
-5.39098e-07
-2.07286e-06
-1.49624e-06
4.07793e-07
1.21014e-06
3.72068e-07
9.9994e-07
3.15454e-07
7.61939e-07
2.33712e-07
5.25074e-07
1.22353e-07
2.94779e-07
-1.57484e-08
6.27951e-08
-1.68151e-07
-1.98733e-07
-3.07748e-07
-5.33968e-07
-4.26757e-07
-9.63397e-07
-5.27104e-07
-1.50728e-06
-4.67344e-07
-2.13262e-06
-1.96358e-06
9.12036e-07
1.19037e-06
8.81855e-07
1.03012e-06
8.1009e-07
8.33704e-07
6.99417e-07
6.35747e-07
5.50812e-07
4.43384e-07
3.77088e-07
2.36519e-07
2.03072e-07
-2.47166e-08
4.77889e-08
-3.78685e-07
-7.72241e-08
-8.38385e-07
-1.86793e-07
-1.39771e-06
-2.67271e-07
-2.05214e-06
-2.23085e-06
1.3449e-06
1.13323e-06
1.32443e-06
1.05059e-06
1.24134e-06
9.1679e-07
1.11197e-06
7.65118e-07
9.56711e-07
5.98643e-07
8.01129e-07
3.92101e-07
6.61223e-07
1.15189e-07
5.33522e-07
-2.50984e-07
4.03778e-07
-7.08641e-07
2.54281e-07
-1.24822e-06
6.44409e-08
-1.8623e-06
-2.16641e-06
1.69559e-06
1.04731e-06
1.69782e-06
1.04836e-06
1.63592e-06
9.78695e-07
1.54011e-06
8.60923e-07
1.4428e-06
6.95949e-07
1.3659e-06
4.69005e-07
1.30818e-06
1.72911e-07
1.24044e-06
-1.83246e-07
1.11504e-06
-5.83239e-07
8.75717e-07
-1.0089e-06
5.09169e-07
-1.49575e-06
-1.65724e-06
2.12592e-06
9.49505e-07
2.16997e-06
1.00431e-06
2.17487e-06
9.73796e-07
2.16783e-06
8.67963e-07
2.17215e-06
6.91625e-07
2.19259e-06
4.48565e-07
2.21292e-06
1.5258e-07
2.20133e-06
-1.71657e-07
2.11275e-06
-4.94656e-07
1.858e-06
-7.54142e-07
1.21924e-06
-8.56997e-07
-4.37998e-07
3.20708e-06
-5.04474e-07
3.2982e-06
-5.58617e-07
3.38524e-06
-5.53319e-07
3.37927e-06
-5.49909e-07
3.28474e-06
-5.27101e-07
3.12165e-06
-4.48932e-07
2.93669e-06
-3.22383e-07
2.7674e-06
-1.32833e-07
2.67734e-06
6.68115e-08
2.67109e-06
2.96221e-07
2.72296e-06
5.30292e-07
7.2978e-07
2.80351e-06
4.5228e-06
-5.88583e-07
4.58096e-06
-6.16777e-07
4.63688e-06
-6.09241e-07
4.65587e-06
-5.68893e-07
4.63414e-06
-5.05377e-07
4.58124e-06
-3.96026e-07
4.49239e-06
-2.33536e-07
4.38215e-06
-2.25874e-08
4.25532e-06
1.93635e-07
4.14936e-06
4.02181e-07
4.09316e-06
5.86492e-07
7.30466e-07
4.09248e-06
5.737e-06
-6.23536e-07
5.76474e-06
-6.44516e-07
5.78417e-06
-6.28665e-07
5.78287e-06
-5.67597e-07
5.75808e-06
-4.80584e-07
5.72448e-06
-3.62432e-07
5.69892e-06
-2.0797e-07
5.68397e-06
-7.63735e-09
5.66672e-06
2.10885e-07
5.64222e-06
4.26673e-07
5.62043e-06
6.0829e-07
7.33695e-07
5.6172e-06
6.90249e-06
6.9002e-06
6.8943e-06
6.8805e-06
6.85215e-06
6.81638e-06
6.78456e-06
6.77415e-06
6.78291e-06
6.8107e-06
6.85452e-06
6.91798e-06
2.89e-06
8.60998e-07
2.9711e-06
9.08814e-07
3.04605e-06
8.75355e-07
3.12131e-06
7.64331e-07
3.20049e-06
5.83252e-07
3.27547e-06
3.48445e-07
3.32831e-06
8.33007e-08
3.33926e-06
-1.87138e-07
3.28832e-06
-4.35883e-07
3.17438e-06
-6.20073e-07
3.05192e-06
-7.02777e-07
-5.48732e-07
3.19991e-06
4.13521e-06
8.18265e-07
4.20588e-06
8.38146e-07
4.29003e-06
7.912e-07
4.37793e-06
6.76438e-07
4.46201e-06
4.99165e-07
4.53165e-06
2.7881e-07
4.57592e-06
3.90271e-08
4.58515e-06
-1.96367e-07
4.55495e-06
-4.05686e-07
4.49726e-06
-5.62376e-07
4.43553e-06
-6.41048e-07
-6.06751e-07
4.49355e-06
5.63841e-06
7.97049e-07
5.68224e-06
7.9432e-07
5.73904e-06
7.34401e-07
5.79606e-06
6.19416e-07
5.84494e-06
4.50284e-07
5.87835e-06
2.45399e-07
5.89013e-06
2.72539e-08
5.8769e-06
-1.83142e-07
5.83968e-06
-3.68464e-07
5.78876e-06
-5.11458e-07
5.7455e-06
-5.97789e-07
-6.17911e-07
5.75666e-06
6.99082e-06
7.05989e-06
7.11791e-06
7.15736e-06
7.17617e-06
7.17521e-06
7.15415e-06
7.11436e-06
7.05978e-06
7.00048e-06
6.95144e-06
6.93174e-06
3.25691e-06
-4.85575e-07
3.34633e-06
-5.42424e-07
3.42667e-06
-5.38744e-07
3.41612e-06
-5.42017e-07
3.31743e-06
-5.23677e-07
3.14879e-06
-4.48108e-07
2.95733e-06
-3.25164e-07
2.78079e-06
-1.39974e-07
2.68494e-06
5.22546e-08
2.67858e-06
2.75586e-07
2.7345e-06
5.09304e-07
7.16667e-07
2.81889e-06
4.58209e-06
-5.74122e-07
4.635e-06
-5.95327e-07
4.68333e-06
-5.87075e-07
4.69765e-06
-5.56343e-07
4.67327e-06
-4.99292e-07
4.61824e-06
-3.93079e-07
4.52576e-06
-2.32679e-07
4.40974e-06
-2.39549e-08
4.27371e-06
1.88284e-07
4.15722e-06
3.92078e-07
4.0925e-06
5.74023e-07
7.22784e-07
4.08638e-06
5.79478e-06
-6.12238e-07
5.81384e-06
-6.14385e-07
5.82333e-06
-5.96572e-07
5.81563e-06
-5.48637e-07
5.78747e-06
-4.71137e-07
5.7522e-06
-3.57804e-07
5.72511e-06
-2.0559e-07
5.70828e-06
-7.12699e-09
5.68768e-06
2.08889e-07
5.65774e-06
4.22013e-07
5.62886e-06
6.02907e-07
7.35068e-07
5.61657e-06
6.93368e-06
6.93193e-06
6.9218e-06
6.90098e-06
6.86768e-06
6.8279e-06
6.79376e-06
6.78322e-06
6.7943e-06
6.8268e-06
6.87752e-06
6.94046e-06
2.90482e-06
8.63575e-07
2.98017e-06
9.28963e-07
3.04831e-06
9.0565e-07
3.11927e-06
7.97002e-07
3.19717e-06
6.13727e-07
3.27309e-06
3.72644e-07
3.32784e-06
9.78353e-08
3.34056e-06
-1.84378e-07
3.29106e-06
-4.45155e-07
3.17718e-06
-6.40261e-07
3.05287e-06
-7.32693e-07
-5.82848e-07
4.12467e-06
8.2528e-07
4.18977e-06
8.63869e-07
4.27032e-06
8.25098e-07
4.35876e-06
7.08559e-07
4.44612e-06
5.26374e-07
4.51997e-06
2.98787e-07
4.56812e-06
4.9692e-08
4.58034e-06
-1.96604e-07
4.55225e-06
-4.17063e-07
4.49557e-06
-5.83577e-07
4.43278e-06
-6.699e-07
-6.37854e-07
5.62773e-06
8.14121e-07
5.66096e-06
8.30641e-07
5.71045e-06
7.75604e-07
5.76689e-06
6.52117e-07
5.8195e-06
4.73765e-07
5.85822e-06
2.60072e-07
5.87512e-06
3.27876e-08
5.8661e-06
-1.8758e-07
5.83198e-06
-3.82942e-07
5.78296e-06
-5.34558e-07
5.73983e-06
-6.26769e-07
-6.47562e-07
7.00257e-06
7.05632e-06
7.10063e-06
7.13389e-06
7.15344e-06
7.15594e-06
7.13915e-06
7.10325e-06
7.05181e-06
6.99453e-06
6.94588e-06
)
;

boundaryField
{
    rotor
    {
        type            calculated;
        value           nonuniform List<scalar> 
96
(
-6.20733e-25
3.86712e-23
-3.0399e-23
-7.1551e-23
5.54208e-23
7.65133e-24
2.21276e-23
-1.30488e-22
1.30281e-22
-5.41804e-23
-7.19645e-23
3.01922e-23
2.83311e-23
-6.30729e-23
1.36483e-23
-2.66767e-23
8.49931e-23
-2.0266e-23
-7.79618e-23
6.20573e-25
-4.36341e-23
-3.06058e-23
3.84639e-23
5.58365e-24
1.22011e-23
-2.79177e-23
8.89266e-24
-2.39883e-23
-7.07244e-23
-1.50956e-23
-1.02571e-22
9.40919e-23
2.3988e-23
6.53476e-23
-1.35038e-22
-6.67944e-23
2.01211e-22
-3.63953e-23
-1.38559e-23
-1.28626e-22
-5.97638e-23
-4.23933e-23
-2.72965e-23
-3.12266e-23
2.41956e-23
-4.71499e-23
-2.35743e-23
1.86107e-24
4.23516e-22
4.23516e-22
0
0
-8.47033e-22
0
-8.47033e-22
8.47033e-22
8.47033e-22
-8.47033e-22
8.47033e-22
1.69407e-21
0
4.23516e-22
-8.47033e-22
-8.47033e-22
8.47033e-22
0
0
0
8.47033e-22
-8.47033e-22
8.47033e-22
0
0
-4.23516e-22
8.47033e-22
8.47033e-22
-8.47033e-22
0
0
0
-8.47033e-22
8.47033e-22
0
0
0
0
0
8.47033e-22
8.47033e-22
0
-8.47033e-22
0
-8.47033e-22
0
0
0
)
;
    }
    stator
    {
        type            calculated;
        value           nonuniform 0();
    }
    AMI1
    {
        type            cyclicAMI;
        value           nonuniform List<scalar> 
48
(
-6.1754e-07
-6.42226e-07
-6.22767e-07
-5.53795e-07
-4.52229e-07
-3.26669e-07
-1.76149e-07
2.78018e-09
2.02123e-07
3.98882e-07
5.64464e-07
6.70235e-07
7.24217e-07
7.2525e-07
6.76378e-07
5.79966e-07
4.31477e-07
2.46354e-07
4.8319e-08
-1.43356e-07
-3.13884e-07
-4.52153e-07
-5.48754e-07
-5.9821e-07
-6.14175e-07
-6.12633e-07
-5.86449e-07
-5.2781e-07
-4.37838e-07
-3.18022e-07
-1.71455e-07
3.41353e-09
1.97812e-07
3.8951e-07
5.52186e-07
6.7213e-07
7.52007e-07
7.76896e-07
7.3129e-07
6.1886e-07
4.54218e-07
2.57564e-07
4.95854e-08
-1.51684e-07
-3.31504e-07
-4.77275e-07
-5.78125e-07
-6.27066e-07
)
;
    }
    AMI2
    {
        type            cyclicAMI;
        value           nonuniform 0();
    }
    front
    {
        type            empty;
        value           nonuniform 0();
    }
    back
    {
        type            empty;
        value           nonuniform 0();
    }
    procBoundary3to2
    {
        type            processor;
        value           nonuniform List<scalar> 8(-3.15533e-06 -4.43869e-06 -5.70205e-06 -6.90849e-06 3.19772e-06 4.48778e-06 5.74954e-06 6.92539e-06);
    }
}


// ************************************************************************* //
