/*--------------------------------*- C++ -*----------------------------------*\
| =========                 |                                                 |
| \\      /  F ield         | OpenFOAM: The Open Source CFD Toolbox           |
|  \\    /   O peration     | Version:  v1806                                 |
|   \\  /    A nd           | Web:      www.OpenFOAM.com                      |
|    \\/     M anipulation  |                                                 |
\*---------------------------------------------------------------------------*/
FoamFile
{
    version     2.0;
    format      ascii;
    class       volVectorField;
    location    "5";
    object      U;
}
// * * * * * * * * * * * * * * * * * * * * * * * * * * * * * * * * * * * * * //

dimensions      [0 1 -1 0 0 0 0];


internalField   nonuniform List<vector> 
768
(
(0.0110533 0.137731 2.1798e-20)
(0.0170843 0.12942 0)
(0.0277468 0.126691 -9.30102e-20)
(0.034333 0.119038 0)
(0.0408362 0.113579 6.33641e-19)
(0.0471568 0.107849 5.38909e-19)
(0.0530734 0.101614 -7.16915e-19)
(0.0589366 0.0951156 -3.52566e-19)
(0.0652168 0.0885797 5.27535e-19)
(0.071884 0.0832048 3.50275e-19)
(0.079091 0.0797465 1.8186e-19)
(0.087526 0.077329 5.43009e-19)
(0.00174369 0.153533 -3.90699e-20)
(0.00471567 0.151952 -1.58689e-19)
(0.0118933 0.149815 8.1521e-20)
(0.0197213 0.147037 0)
(0.0286803 0.143486 -4.86863e-19)
(0.0376696 0.139514 -4.8933e-19)
(0.0464585 0.135627 6.4066e-19)
(0.0561859 0.131756 4.83841e-19)
(0.068873 0.126579 -1.00313e-18)
(0.0848988 0.119407 3.20947e-19)
(0.103043 0.113468 6.53204e-19)
(0.121947 0.109645 -9.48603e-19)
(0.0060433 0.161913 1.00513e-21)
(0.012319 0.159295 -1.36659e-19)
(0.0204532 0.156955 3.35107e-19)
(0.0294692 0.153691 -1.40558e-19)
(0.039863 0.149817 2.7011e-19)
(0.0516185 0.145856 5.49106e-19)
(0.0644072 0.142451 -5.55405e-19)
(0.078632 0.140038 2.76109e-19)
(0.0959108 0.137285 -1.13009e-18)
(0.11638 0.132542 7.93841e-22)
(0.138372 0.127233 1.02411e-18)
(0.159079 0.122395 -2.34864e-19)
(-0.000681886 0.18002 -7.03966e-20)
(0.00624383 0.177578 -5.84539e-20)
(0.0164376 0.175185 -1.15861e-19)
(0.0274145 0.172187 -8.99039e-21)
(0.0396715 0.168295 -4.57455e-19)
(0.0537559 0.163503 -2.37471e-19)
(0.0704283 0.158016 -2.31333e-19)
(0.0902351 0.152375 3.50177e-22)
(0.113466 0.146725 9.31069e-19)
(0.13854 0.140414 -3.38509e-21)
(0.162456 0.134041 -6.1044e-19)
(0.182538 0.128167 -1.83807e-19)
(-0.000417133 0.19581 2.31044e-21)
(0.00792796 0.193314 1.44946e-19)
(0.0197823 0.190758 4.69231e-21)
(0.0324509 0.187605 -1.0286e-19)
(0.0467293 0.183673 2.07846e-19)
(0.0630541 0.178819 0)
(0.0817368 0.172423 2.13492e-19)
(0.103491 0.164122 1.90097e-19)
(0.128545 0.154873 0)
(0.154391 0.145631 3.56228e-19)
(0.177215 0.137217 1.74169e-19)
(0.1946 0.130046 -3.26167e-19)
(-0.0022886 0.212358 2.14919e-20)
(0.00749797 0.210185 -4.33394e-20)
(0.0211211 0.208398 0)
(0.0354784 0.205531 1.56992e-19)
(0.0514195 0.201148 -3.27473e-19)
(0.0695455 0.195175 5.12838e-19)
(0.090389 0.187079 -6.81687e-19)
(0.113951 0.175989 -1.70973e-19)
(0.139592 0.162771 3.17857e-19)
(0.164569 0.149696 -2.92509e-19)
(0.185053 0.138473 8.20063e-19)
(0.199134 0.129701 -5.23152e-19)
(-0.00228253 0.228728 -3.28447e-23)
(0.00950911 0.227429 0)
(0.0245336 0.226783 0)
(0.0401683 0.224428 -1.37542e-19)
(0.0572739 0.219858 -1.30334e-19)
(0.0762046 0.212774 -1.40939e-19)
(0.0974953 0.202735 5.60292e-19)
(0.121232 0.188974 -2.70632e-19)
(0.146206 0.171952 -1.683e-20)
(0.169507 0.154561 2.43444e-19)
(0.187539 0.139795 -6.87413e-19)
(0.198839 0.12891 8.99362e-19)
(-0.00106757 0.244925 1.23915e-20)
(0.0132253 0.245386 -5.50364e-20)
(0.0291624 0.246137 -4.51653e-20)
(0.0454801 0.24439 1.30441e-19)
(0.062962 0.239665 -1.00551e-19)
(0.0819352 0.231439 -9.14517e-20)
(0.102747 0.219452 -2.25302e-19)
(0.125489 0.203319 0)
(0.148921 0.183194 -4.14406e-19)
(0.170204 0.161783 3.71645e-19)
(0.186122 0.142984 1.89961e-19)
(0.195559 0.12909 -3.63272e-19)
(0.00208062 0.260814 -1.17646e-20)
(0.018439 0.26415 4.24473e-20)
(0.0348084 0.265683 5.16026e-20)
(0.0510225 0.263925 9.33937e-20)
(0.0678802 0.258917 -5.14855e-20)
(0.0861691 0.249833 3.33361e-19)
(0.10594 0.236299 0)
(0.127072 0.218332 0)
(0.148557 0.196157 0)
(0.167904 0.171815 1.377e-19)
(0.1823 0.149266 -1.33245e-19)
(0.190813 0.131728 -2.2882e-19)
(0.00730613 0.275795 1.36015e-20)
(0.0243605 0.282828 -2.6174e-20)
(0.0400894 0.283505 5.0437e-20)
(0.0551703 0.280397 0)
(0.0705537 0.274075 2.31846e-19)
(0.0873228 0.263891 -2.49701e-19)
(0.10626 0.249723 1.14615e-19)
(0.126329 0.231269 -1.99868e-19)
(0.146293 0.208701 2.09251e-19)
(0.164221 0.183363 -8.89234e-22)
(0.177868 0.158545 -3.48382e-19)
(0.186452 0.1378 4.01916e-19)
(0.019145 0.28627 -3.9278e-21)
(0.031123 0.293998 6.12881e-20)
(0.0417629 0.291191 -3.828e-20)
(0.0545792 0.284554 5.73713e-20)
(0.0679359 0.276416 -8.99305e-20)
(0.0829358 0.266238 -1.14654e-19)
(0.100875 0.252891 1.87147e-20)
(0.121285 0.236021 1.9493e-20)
(0.141621 0.215528 6.24874e-20)
(0.159709 0.192013 -2.96875e-20)
(0.173905 0.167595 -4.5138e-21)
(0.183679 0.145411 1.02141e-19)
(0.00523054 0.276079 -1.2893e-20)
(0.0199695 0.269426 1.41685e-21)
(0.0338475 0.262074 -2.63935e-20)
(0.0442169 0.252417 -4.98478e-20)
(0.0555966 0.245981 0)
(0.07049 0.241367 1.67897e-20)
(0.0886006 0.234481 9.28634e-20)
(0.10925 0.223163 -5.0663e-20)
(0.130446 0.207999 5.35184e-20)
(0.149897 0.189632 8.90763e-20)
(0.165911 0.169099 5.97256e-20)
(0.177759 0.148532 -9.60488e-20)
(0.0979443 0.0741588 7.5817e-19)
(0.110064 0.0690351 -1.1511e-18)
(0.122179 0.0627416 -1.16216e-18)
(0.132064 0.0566383 7.74e-19)
(0.138276 0.0511851 -9.60109e-19)
(0.140513 0.0461659 7.68207e-19)
(0.139572 0.0404791 -2.02034e-19)
(0.136618 0.032635 7.87682e-19)
(0.132697 0.0217319 -5.00295e-19)
(0.129778 0.00764266 0)
(0.129022 -0.00672562 5.05959e-20)
(0.128745 -0.0127822 -9.63876e-23)
(0.139912 0.106813 2.86963e-19)
(0.155288 0.104511 2.99086e-19)
(0.166954 0.102709 2.92084e-19)
(0.174524 0.100928 5.5302e-19)
(0.178098 0.0980701 -2.89679e-19)
(0.177931 0.0930639 -5.64331e-19)
(0.174621 0.0861245 4.18969e-19)
(0.169502 0.0765016 1.53753e-19)
(0.16267 0.0621305 -4.5678e-19)
(0.154953 0.0426161 0)
(0.148349 0.0211855 0)
(0.144753 0.00263861 -2.08461e-20)
(0.176497 0.117925 -7.10765e-19)
(0.189932 0.113706 0)
(0.199405 0.109758 -2.34573e-19)
(0.205242 0.106332 2.36093e-19)
(0.207965 0.103919 -2.3884e-19)
(0.208043 0.102638 -4.59319e-19)
(0.205346 0.100454 4.53848e-19)
(0.200006 0.0949841 1.20598e-19)
(0.192226 0.0827364 8.9633e-21)
(0.182088 0.0599213 -1.33803e-19)
(0.170083 0.0270491 1.45103e-19)
(0.159653 -0.00240873 1.92095e-20)
(0.197729 0.122979 3.81088e-19)
(0.208227 0.118709 -5.46845e-19)
(0.214659 0.115641 -1.95028e-19)
(0.217939 0.113922 7.52253e-19)
(0.219191 0.11329 0)
(0.219407 0.113092 -5.6999e-19)
(0.219179 0.113253 3.77573e-19)
(0.217952 0.112651 -3.74817e-19)
(0.214607 0.10742 2.96131e-19)
(0.207833 0.0903499 -1.06881e-19)
(0.195576 0.0541143 5.70602e-20)
(0.17678 0.00557556 6.51419e-20)
(0.20625 0.124116 0)
(0.213025 0.119338 1.67422e-19)
(0.216225 0.115597 0)
(0.2174 0.11274 1.33675e-19)
(0.218028 0.110782 1.58779e-19)
(0.219217 0.110101 -3.2037e-19)
(0.221225 0.110792 1.72252e-19)
(0.223882 0.112907 1.73191e-19)
(0.225968 0.114695 -1.55826e-19)
(0.225406 0.108566 0)
(0.219388 0.0793884 -4.52524e-20)
(0.201449 0.0184929 0)
(0.207283 0.123112 2.65641e-19)
(0.211123 0.118191 -2.68737e-19)
(0.212615 0.114467 0)
(0.213512 0.111567 -5.64877e-19)
(0.214898 0.109237 -4.29156e-19)
(0.217296 0.107372 1.56403e-19)
(0.220901 0.106362 3.00159e-19)
(0.225818 0.107245 -1.40867e-19)
(0.231241 0.110925 1.50279e-19)
(0.235358 0.113716 0)
(0.237356 0.0986031 4.05785e-20)
(0.230219 0.0382254 -4.43996e-23)
(0.204574 0.121486 -2.4207e-19)
(0.207063 0.116439 1.73003e-20)
(0.208591 0.112695 2.15929e-19)
(0.210631 0.109539 1.68439e-20)
(0.213691 0.10672 5.13611e-19)
(0.217897 0.104242 0)
(0.223321 0.102263 1.05482e-19)
(0.229656 0.10159 1.20886e-19)
(0.236206 0.103767 1.12703e-19)
(0.241648 0.109572 4.99822e-20)
(0.248204 0.10809 6.06763e-20)
(0.255491 0.0592922 1.71664e-20)
(0.200057 0.120003 -1.90056e-19)
(0.202287 0.114223 1.52915e-20)
(0.204514 0.110056 -2.02774e-19)
(0.207822 0.10644 1.90997e-19)
(0.212588 0.103045 1.7133e-20)
(0.219024 0.0998214 -6.1604e-19)
(0.226686 0.0971857 6.86739e-20)
(0.234524 0.0960061 1.02211e-19)
(0.24164 0.0972988 -1.10404e-19)
(0.247054 0.102518 -1.09043e-19)
(0.25389 0.10911 2.00196e-20)
(0.273921 0.0772056 2.55987e-20)
(0.195039 0.119918 -1.31214e-19)
(0.197686 0.112462 1.3308e-19)
(0.200933 0.107323 0)
(0.20578 0.102972 -1.47646e-19)
(0.212567 0.0986717 4.74001e-19)
(0.220997 0.0944186 -1.46838e-19)
(0.22982 0.0910033 -1.01629e-19)
(0.237896 0.0894603 8.33866e-20)
(0.244828 0.0907978 0)
(0.250601 0.0952498 0)
(0.256637 0.104051 -4.54863e-20)
(0.284567 0.089545 -3.28492e-20)
(0.191401 0.122767 -9.41114e-20)
(0.195252 0.112719 1.76107e-19)
(0.200055 0.105689 -1.87193e-19)
(0.206646 0.0998325 1.98773e-19)
(0.214771 0.0941605 2.22529e-19)
(0.223251 0.0887819 -1.20574e-19)
(0.230732 0.0846122 0)
(0.236981 0.0825631 1.16935e-19)
(0.242763 0.0832268 0)
(0.249175 0.0867971 0)
(0.257752 0.0935136 -2.65421e-20)
(0.286593 0.0900875 3.30082e-20)
(0.190214 0.127702 0)
(0.195597 0.114641 -1.64431e-19)
(0.201441 0.104879 3.07157e-19)
(0.2081 0.0968259 -4.10859e-19)
(0.214789 0.0896139 -9.93609e-20)
(0.220315 0.0833286 1.71461e-19)
(0.224195 0.0785707 -1.33603e-19)
(0.227349 0.0756683 -1.45061e-19)
(0.231822 0.0746145 0)
(0.239447 0.0752108 -3.73751e-20)
(0.254482 0.0776451 1.48668e-20)
(0.278977 0.0691072 -2.98829e-21)
(0.186062 0.130168 0)
(0.192207 0.115044 -5.00904e-20)
(0.197299 0.102865 -1.0905e-19)
(0.201532 0.0928268 7.74598e-20)
(0.204447 0.084382 1.12051e-19)
(0.205757 0.0774653 -7.2187e-21)
(0.206067 0.0721896 -5.37743e-20)
(0.206854 0.0683863 4.374e-20)
(0.210117 0.065583 3.29865e-20)
(0.218191 0.0623523 4.67647e-20)
(0.236566 0.0564103 -3.18338e-20)
(0.255492 0.0291192 2.92357e-24)
(0.131999 -0.00938876 -1.14753e-20)
(0.127988 -0.0178027 4.68959e-20)
(0.122954 -0.0257583 0)
(0.117495 -0.0332755 4.57762e-19)
(0.11189 -0.0402336 -3.61924e-19)
(0.10613 -0.0466264 -7.20406e-19)
(0.10017 -0.052602 7.12895e-19)
(0.0940086 -0.0586234 -1.78187e-19)
(0.0878112 -0.0650249 -3.47727e-19)
(0.0830363 -0.0716987 5.40867e-19)
(0.0800777 -0.0789404 -7.24998e-19)
(0.0778791 -0.087588 5.42994e-19)
(0.151136 0.00345326 7.84762e-20)
(0.150897 -0.00189504 -1.74499e-21)
(0.148806 -0.0111373 0)
(0.145956 -0.0207104 0)
(0.142503 -0.0298887 0)
(0.138841 -0.0385115 -4.87021e-19)
(0.135234 -0.0471433 9.55963e-19)
(0.131394 -0.0571488 3.17222e-19)
(0.125911 -0.0703307 3.4103e-19)
(0.118982 -0.08665 0)
(0.113747 -0.105057 -6.46858e-19)
(0.110297 -0.124232 -3.18329e-19)
(0.162989 -0.0041104 -1.63776e-20)
(0.161019 -0.011895 -7.02071e-20)
(0.158259 -0.0213344 0)
(0.154725 -0.0311282 1.31408e-19)
(0.150857 -0.041704 0)
(0.147104 -0.0533082 -4.29572e-19)
(0.143988 -0.0658222 2.72226e-19)
(0.14166 -0.0802726 -2.93793e-19)
(0.138464 -0.0980333 0)
(0.133527 -0.119037 -2.55619e-19)
(0.128379 -0.141289 0)
(0.123627 -0.161934 0)
(0.180815 0.00249934 -7.04238e-20)
(0.178733 -0.00482827 5.79429e-20)
(0.176369 -0.0160401 -1.11623e-19)
(0.173175 -0.0279203 -1.21129e-19)
(0.168935 -0.0407699 2.35143e-19)
(0.164042 -0.0553727 -2.558e-19)
(0.158875 -0.0725149 2.30882e-19)
(0.153633 -0.0928102 0)
(0.148007 -0.116476 0)
(0.141692 -0.14166 -2.03322e-19)
(0.135367 -0.165273 2.16868e-19)
(0.129448 -0.184748 -3.85991e-19)
(0.196109 0.000343996 2.31667e-21)
(0.194173 -0.00830132 0)
(0.191751 -0.0204862 1.96995e-19)
(0.188569 -0.033651 0)
(0.18457 -0.0483778 0)
(0.179591 -0.0648982 -6.20813e-19)
(0.172983 -0.0838151 -2.1209e-19)
(0.164741 -0.106013 9.82224e-19)
(0.155651 -0.131373 -3.80207e-19)
(0.146562 -0.156967 3.50927e-19)
(0.138265 -0.179049 1.72224e-19)
(0.131096 -0.195502 -3.23194e-19)
(0.212485 0.00264933 -1.94494e-20)
(0.210641 -0.0075509 4.10914e-20)
(0.20904 -0.0215559 -8.76276e-20)
(0.20612 -0.036345 0)
(0.201632 -0.0526886 1.01365e-20)
(0.195521 -0.0712341 -1.01634e-20)
(0.187126 -0.0923546 0)
(0.175812 -0.116128 -1.74105e-19)
(0.162689 -0.141773 0)
(0.149909 -0.166182 2.8869e-19)
(0.139 -0.185683 2.51757e-19)
(0.130412 -0.198767 2.45514e-19)
(0.228638 0.00209065 -3.29848e-23)
(0.227636 -0.00997769 -6.8699e-20)
(0.22708 -0.025169 6.87407e-20)
(0.224655 -0.0410499 0)
(0.219892 -0.058342 2.90461e-19)
(0.212568 -0.0774879 -5.55486e-19)
(0.202209 -0.0989827 2.76322e-19)
(0.188052 -0.122792 -2.5008e-19)
(0.170953 -0.14755 -2.53861e-19)
(0.153906 -0.170143 1.62318e-20)
(0.139675 -0.187163 -9.12692e-19)
(0.129221 -0.197591 -3.38469e-20)
(0.244738 0.000834356 -2.66284e-23)
(0.245409 -0.013677 0)
(0.246152 -0.0297294 -2.10624e-19)
(0.244266 -0.0461457 1.10334e-19)
(0.239276 -0.0637365 -1.10979e-19)
(0.230741 -0.0827483 3.57728e-19)
(0.218412 -0.103615 -2.20011e-19)
(0.201839 -0.126314 2.35345e-19)
(0.181471 -0.149429 3.74999e-19)
(0.160314 -0.170007 3.81653e-19)
(0.142141 -0.185034 1.8795e-19)
(0.128883 -0.193819 -5.14991e-19)
(0.260534 -0.00230672 -1.90383e-20)
(0.264003 -0.0188201 8.03497e-20)
(0.265579 -0.0352807 -2.25446e-20)
(0.263732 -0.0515264 0)
(0.258451 -0.0683825 -1.4529e-19)
(0.248968 -0.0865907 -3.11119e-19)
(0.234977 -0.106226 3.12607e-19)
(0.216563 -0.127192 1.56789e-19)
(0.194041 -0.148337 -4.44772e-19)
(0.169762 -0.167085 2.55807e-19)
(0.14773 -0.180788 -1.68623e-20)
(0.130876 -0.188869 3.69907e-19)
(0.275499 -0.00734212 2.33234e-21)
(0.28267 -0.0246355 6.16932e-21)
(0.283503 -0.040534 7.00408e-20)
(0.280434 -0.0556397 0)
(0.273997 -0.0708749 -1.63674e-20)
(0.263474 -0.0874868 2.87467e-19)
(0.248757 -0.106197 -2.46796e-19)
(0.229709 -0.125953 1.30472e-19)
(0.206666 -0.145517 1.76788e-20)
(0.181142 -0.162947 -1.13998e-19)
(0.156563 -0.176095 -2.02398e-19)
(0.136337 -0.184415 -1.20504e-19)
(0.286178 -0.0191334 -1.04563e-20)
(0.294159 -0.0318368 -1.46281e-20)
(0.291425 -0.0425724 -3.01762e-20)
(0.284799 -0.0551715 0)
(0.276656 -0.0682191 3.62033e-20)
(0.266349 -0.0829156 -1.36078e-19)
(0.252696 -0.100611 6.36709e-20)
(0.235318 -0.12074 1.1116e-19)
(0.214228 -0.140681 -9.23028e-20)
(0.190254 -0.158299 -9.26677e-20)
(0.165704 -0.172078 0)
(0.143698 -0.181655 0)
(0.276853 -0.00552041 1.06046e-20)
(0.270165 -0.0205076 -1.59368e-20)
(0.262615 -0.0343461 3.62601e-20)
(0.252519 -0.0444166 0)
(0.245808 -0.0555185 6.92227e-20)
(0.241209 -0.0701966 4.37003e-20)
(0.234495 -0.0881271 -5.52908e-20)
(0.223208 -0.108642 -8.27578e-20)
(0.207775 -0.129705 1.10955e-19)
(0.188961 -0.148882 1.17608e-19)
(0.168029 -0.164587 -7.43057e-20)
(0.147245 -0.176269 0)
(0.0746019 -0.0984402 9.48408e-19)
(0.0692654 -0.111086 -1.15366e-18)
(0.0629466 -0.123604 -9.62818e-19)
(0.0569552 -0.133653 1.13481e-18)
(0.0516531 -0.13981 7.61648e-19)
(0.046771 -0.14184 -7.61648e-19)
(0.0410762 -0.140606 1.83811e-19)
(0.0331382 -0.137283 2.94685e-19)
(0.0220823 -0.132964 -2.98563e-19)
(0.0078048 -0.129734 0)
(-0.00674682 -0.128892 -1.00901e-19)
(-0.0128696 -0.12867 1.47325e-19)
(0.107636 -0.142383 1.17848e-18)
(0.105473 -0.157754 2.93216e-19)
(0.103822 -0.169209 -2.64047e-19)
(0.102162 -0.176439 -2.41824e-20)
(0.0993544 -0.179635 0)
(0.0943293 -0.17911 -8.27395e-19)
(0.0873953 -0.175535 -5.43247e-21)
(0.0776895 -0.170211 4.42422e-19)
(0.0630896 -0.163203 -4.53951e-19)
(0.0431618 -0.155243 0)
(0.0212533 -0.148385 0)
(0.00244788 -0.144647 -2.19313e-20)
(0.11916 -0.17909 2.18784e-19)
(0.114911 -0.192112 -4.47233e-19)
(0.110944 -0.201095 1.31421e-21)
(0.107551 -0.206474 2.1341e-19)
(0.105223 -0.208813 4.56969e-19)
(0.104039 -0.208568 2.3982e-19)
(0.101901 -0.205746 -3.32896e-19)
(0.0965051 -0.200419 3.53369e-19)
(0.0842319 -0.192675 -2.31349e-19)
(0.0611667 -0.18251 -1.27279e-19)
(0.0277207 -0.170333 0)
(-0.00242806 -0.159531 -3.66764e-20)
(0.124168 -0.199216 5.53156e-19)
(0.119814 -0.20897 -3.71007e-19)
(0.116685 -0.214747 -3.69412e-19)
(0.1149 -0.217566 1.97564e-19)
(0.114161 -0.218607 0)
(0.113887 -0.218846 -3.85858e-19)
(0.114083 -0.218762 5.67451e-19)
(0.113584 -0.217732 -1.88041e-19)
(0.10852 -0.214595 1.95204e-19)
(0.0915338 -0.207972 2.09035e-19)
(0.0550242 -0.195804 0)
(0.00569894 -0.176824 6.54182e-20)
(0.125102 -0.206275 2.94521e-19)
(0.120247 -0.21236 -2.94201e-19)
(0.116419 -0.215161 0)
(0.113465 -0.216243 5.00383e-19)
(0.111415 -0.216992 -1.77237e-19)
(0.110666 -0.218382 -1.80421e-19)
(0.111275 -0.220628 4.94905e-19)
(0.113422 -0.223554 4.47966e-21)
(0.115382 -0.225848 -2.48337e-19)
(0.109484 -0.225392 -2.29611e-21)
(0.0802987 -0.219499 -1.3791e-19)
(0.0188017 -0.201715 -8.16718e-20)
(0.123874 -0.206188 -3.99036e-20)
(0.118922 -0.209687 1.87881e-20)
(0.115123 -0.211221 0)
(0.112144 -0.212407 0)
(0.109741 -0.214152 -4.29129e-19)
(0.107813 -0.216889 -1.77043e-19)
(0.106767 -0.220792 4.31196e-19)
(0.107667 -0.225937 -2.73945e-19)
(0.111515 -0.231492 0)
(0.114562 -0.235563 0)
(0.0995379 -0.237461 1.08736e-21)
(0.0386641 -0.230396 9.14208e-20)
(0.122006 -0.202888 -1.75365e-20)
(0.116963 -0.205404 2.27659e-19)
(0.11311 -0.207282 -2.3235e-19)
(0.109844 -0.209761 -2.41563e-19)
(0.106974 -0.213231 5.12908e-19)
(0.104479 -0.217814 -5.03178e-19)
(0.102488 -0.223572 -2.30478e-19)
(0.101895 -0.230138 1.71233e-20)
(0.104343 -0.236804 -1.12358e-19)
(0.110536 -0.242173 1.11392e-19)
(0.109216 -0.248535 0)
(0.0598748 -0.255652 1.71316e-20)
(0.120186 -0.198157 -1.57112e-19)
(0.114491 -0.200667 -1.78062e-19)
(0.110215 -0.203379 1.66453e-19)
(0.106469 -0.207157 3.83029e-19)
(0.103016 -0.212341 -1.98982e-19)
(0.0997764 -0.219157 1.47169e-20)
(0.0971613 -0.227097 3.28236e-19)
(0.0961259 -0.235071 2.13593e-19)
(0.0977491 -0.24224 1.63084e-20)
(0.103497 -0.247574 -1.08628e-19)
(0.110491 -0.254372 -2.66838e-20)
(0.0782195 -0.274314 -1.26913e-21)
(0.119592 -0.193121 2.7403e-19)
(0.11236 -0.196164 -1.32284e-19)
(0.107204 -0.199929 -2.63045e-20)
(0.102757 -0.205243 -2.79859e-19)
(0.0983886 -0.212428 4.45355e-19)
(0.0941222 -0.221177 -1.59274e-19)
(0.090777 -0.230191 2.38431e-19)
(0.0894431 -0.238304 7.11878e-20)
(0.0911228 -0.245192 6.56174e-21)
(0.0960768 -0.250805 1.23762e-19)
(0.105427 -0.256911 -3.3306e-21)
(0.0911623 -0.285118 1.25096e-20)
(0.121816 -0.189479 0)
(0.112084 -0.19374 0)
(0.105158 -0.19904 -3.02088e-19)
(0.099284 -0.206077 1.21292e-19)
(0.0935811 -0.214561 -1.27266e-19)
(0.0882354 -0.223288 0)
(0.0842151 -0.230871 -3.22129e-19)
(0.082438 -0.23708 -7.86041e-20)
(0.0834666 -0.242787 1.14423e-19)
(0.0874773 -0.249032 0)
(0.0946032 -0.257763 -6.21548e-20)
(0.0918637 -0.286942 0)
(0.1263 -0.188313 0)
(0.113519 -0.19408 7.31613e-20)
(0.103931 -0.200404 9.87604e-20)
(0.095956 -0.20751 -2.26794e-19)
(0.088787 -0.21454 -7.02092e-20)
(0.0825951 -0.220253 8.20061e-20)
(0.0780403 -0.224159 6.70292e-20)
(0.075455 -0.227214 -4.76272e-20)
(0.0747863 -0.231589 -2.2384e-20)
(0.0757962 -0.239037 3.74462e-20)
(0.078655 -0.254399 4.10929e-20)
(0.0704597 -0.278744 -6.5423e-21)
(0.128843 -0.184674 4.47422e-20)
(0.113795 -0.191172 -4.44732e-20)
(0.101739 -0.196714 5.50536e-20)
(0.0918069 -0.201343 1.73181e-20)
(0.083452 -0.204507 3.13509e-19)
(0.0766744 -0.205878 -7.05846e-21)
(0.0716366 -0.206093 -2.5646e-20)
(0.0681685 -0.206713 3.46228e-20)
(0.065752 -0.209844 -7.42092e-20)
(0.0629058 -0.217735 -3.41719e-20)
(0.0573981 -0.236278 -1.51658e-20)
(0.0303992 -0.254992 3.67093e-21)
(-0.0115464 0.197015 3.66845e-21)
(-0.00149894 0.192406 -6.12516e-21)
(0.0105106 0.188567 5.78999e-21)
(0.02235 0.185815 0)
(0.0352412 0.18534 0)
(0.0509841 0.187039 4.65664e-21)
(0.0698359 0.188872 -4.73552e-21)
(0.0906847 0.188277 0)
(0.112244 0.182534 -7.4127e-21)
(0.132137 0.1711 0)
(0.14875 0.15585 0)
(0.161516 0.13907 0)
(-0.0113019 0.160213 -8.87962e-22)
(-0.000758391 0.156609 -8.10548e-21)
(0.0097997 0.153248 -3.13758e-21)
(0.0203853 0.150702 0)
(0.0315756 0.148749 -2.01586e-22)
(0.0444487 0.146723 2.02969e-22)
(0.0591759 0.144268 -6.80363e-21)
(0.0746741 0.141502 6.91199e-21)
(0.0905991 0.138092 -1.30472e-21)
(0.106687 0.132964 7.75537e-21)
(0.121584 0.124916 0)
(0.133782 0.114146 0)
(-0.0127742 0.125787 8.05757e-22)
(-0.00523066 0.124646 1.10329e-21)
(0.00269267 0.123305 -4.291e-22)
(0.0117029 0.122249 -2.28089e-21)
(0.0216888 0.121324 0)
(0.0328223 0.11982 0)
(0.0450055 0.116885 2.19968e-20)
(0.0579173 0.111785 2.57874e-20)
(0.0708763 0.104811 0)
(0.0831079 0.0970499 0)
(0.0938547 0.089079 0)
(0.102455 0.0808804 0)
(-0.0133786 0.0936164 -6.46689e-22)
(-0.00785267 0.0944951 -7.84438e-22)
(-0.00122105 0.0945975 1.41143e-21)
(0.00687762 0.0942831 -2.85363e-21)
(0.0158415 0.0937671 1.32608e-20)
(0.0255898 0.092607 0)
(0.0359991 0.0903818 -8.60086e-21)
(0.0465074 0.0864875 -3.56406e-20)
(0.0565632 0.08056 -1.16996e-20)
(0.0655813 0.0729646 1.15839e-20)
(0.0729254 0.0643971 -1.62423e-20)
(0.0779919 0.0556385 1.80262e-20)
(0.170541 0.122663 0)
(0.176441 0.107861 0)
(0.179942 0.0951216 8.30569e-20)
(0.181459 0.0844729 2.89404e-20)
(0.181259 0.0758061 -1.26497e-20)
(0.179932 0.0689957 -4.69276e-20)
(0.178566 0.0638393 3.13901e-20)
(0.178444 0.0598524 4.88859e-20)
(0.180683 0.0562463 -6.43741e-20)
(0.185998 0.0510899 8.25936e-21)
(0.193395 0.0422698 8.77352e-21)
(0.198335 0.0187028 0)
(0.142461 0.101999 0)
(0.147642 0.089966 0)
(0.149952 0.0790413 0)
(0.150102 0.069857 -9.51431e-20)
(0.148828 0.0626719 3.06663e-20)
(0.147039 0.0573241 0)
(0.145727 0.0533848 -8.91019e-20)
(0.145721 0.0501973 1.85807e-20)
(0.147572 0.046899 6.84283e-21)
(0.151288 0.0421778 0)
(0.156044 0.0345019 0)
(0.159177 0.0226162 0)
(0.108532 0.072411 0)
(0.112048 0.0641037 0)
(0.113387 0.0565205 0)
(0.113119 0.0503505 0)
(0.111997 0.0459222 0)
(0.110815 0.0429948 0)
(0.110314 0.0410608 1.33131e-19)
(0.111013 0.0394763 -1.43077e-20)
(0.113134 0.0375065 4.24495e-21)
(0.116484 0.0342682 -1.84626e-20)
(0.120313 0.0290013 7.76661e-21)
(0.123071 0.0211083 -4.48186e-22)
(0.0804274 0.0474548 0)
(0.080705 0.0405055 2.18496e-20)
(0.080026 0.0348986 4.91575e-21)
(0.07896 0.0308779 1.6686e-20)
(0.0778075 0.0287635 2.12735e-20)
(0.0770743 0.028079 -6.377e-20)
(0.0772293 0.0281946 -6.17125e-20)
(0.0785579 0.0284494 1.14034e-20)
(0.0810698 0.0281945 2.12856e-20)
(0.0844664 0.0268071 1.36919e-20)
(0.0881011 0.0237817 -3.64732e-21)
(0.0910277 0.0189091 -1.26128e-21)
(0.195018 0.0107729 -5.66206e-21)
(0.190259 0.00118332 -4.44849e-21)
(0.186827 -0.0106053 0)
(0.184276 -0.0221966 -5.88304e-21)
(0.183965 -0.0349051 -1.30523e-20)
(0.185888 -0.0505423 -4.91383e-21)
(0.188039 -0.0693137 2.60296e-20)
(0.187846 -0.0900506 0)
(0.18252 -0.111556 -5.82482e-21)
(0.17129 -0.131459 0)
(0.155926 -0.148088 4.02112e-20)
(0.138839 -0.160922 -1.92101e-20)
(0.157815 0.010987 0)
(0.154226 0.000545121 5.79406e-21)
(0.151233 -0.0099476 0)
(0.148976 -0.0202826 -1.49256e-21)
(0.147172 -0.0312493 1.47299e-21)
(0.145269 -0.0439548 7.80353e-21)
(0.142967 -0.0585768 -3.42011e-21)
(0.140438 -0.0740094 0)
(0.137417 -0.089874 5.10503e-21)
(0.132808 -0.105999 -4.23894e-21)
(0.125181 -0.12108 4.21271e-21)
(0.114516 -0.133608 1.67727e-20)
(0.123415 0.0125666 4.66943e-22)
(0.122373 0.00481865 -5.59015e-22)
(0.121464 -0.00309979 5.58994e-22)
(0.120834 -0.0117983 -1.32558e-21)
(0.120104 -0.0215477 -4.11507e-21)
(0.118705 -0.0325527 -1.32459e-20)
(0.115853 -0.044651 1.04901e-20)
(0.11086 -0.0574831 -1.06034e-20)
(0.104035 -0.0703745 0)
(0.0964825 -0.082599 8.09484e-21)
(0.0887566 -0.0934549 6.49856e-21)
(0.0807113 -0.102358 -5.77491e-21)
(0.0925386 0.0130097 -1.24442e-21)
(0.0930025 0.00690594 1.97291e-22)
(0.0931828 0.000260041 1.28697e-21)
(0.0932606 -0.00732514 1.20153e-21)
(0.0930051 -0.0159198 -1.32709e-20)
(0.0920709 -0.0254989 1.484e-20)
(0.0900159 -0.0358408 0)
(0.0862107 -0.0462979 3.66742e-20)
(0.0802977 -0.0562555 -1.18726e-20)
(0.0726604 -0.0650941 0)
(0.0639852 -0.0721904 -2.84859e-20)
(0.0550352 -0.0771546 5.7246e-21)
(0.122101 -0.170163 0)
(0.107078 -0.176425 -4.5815e-20)
(0.0942825 -0.18028 0)
(0.0836579 -0.182005 2.87614e-20)
(0.0750416 -0.181832 -5.91653e-20)
(0.0683497 -0.180375 0)
(0.0634101 -0.178791 0)
(0.0597306 -0.178451 -4.57232e-20)
(0.0564688 -0.180538 0)
(0.0516512 -0.185735 1.70655e-20)
(0.0432051 -0.193254 -2.86832e-21)
(0.0198116 -0.198316 5.30918e-21)
(0.102164 -0.14276 1.25313e-20)
(0.0898173 -0.148467 2.91225e-20)
(0.0787164 -0.151113 0)
(0.0694726 -0.151311 1.71811e-20)
(0.0622597 -0.149874 -3.06533e-20)
(0.0569604 -0.147815 0)
(0.0531724 -0.146212 -7.12988e-20)
(0.0502238 -0.145959 4.11834e-20)
(0.0472071 -0.147635 0)
(0.0427594 -0.151247 9.18823e-21)
(0.0353334 -0.156022 0)
(0.0235343 -0.15933 1.20281e-24)
(0.0722588 -0.108965 0)
(0.0638879 -0.113087 2.88091e-20)
(0.0563699 -0.114803 -1.23719e-20)
(0.050284 -0.114603 -1.08427e-19)
(0.0458535 -0.11331 2.31885e-20)
(0.0429322 -0.11185 5.34394e-20)
(0.041077 -0.111048 7.93553e-20)
(0.0396604 -0.111479 -1.01111e-21)
(0.0379118 -0.113397 1.02251e-20)
(0.0348928 -0.116627 -2.24699e-20)
(0.0297958 -0.120443 0)
(0.0219191 -0.123305 -9.27137e-22)
(0.0466057 -0.08009 3.7817e-21)
(0.0394733 -0.0813322 -2.7945e-20)
(0.0340984 -0.0812274 2.32506e-20)
(0.0305778 -0.0802196 5.24397e-20)
(0.0287406 -0.0789161 2.1489e-20)
(0.0282025 -0.077955 -7.06056e-20)
(0.0284373 -0.0778659 -3.32886e-20)
(0.0288373 -0.0789735 -1.16661e-20)
(0.0287542 -0.0813137 -2.17731e-20)
(0.0275272 -0.0846091 0)
(0.0246028 -0.0882344 0)
(0.0197019 -0.0912386 2.35519e-21)
)
;

boundaryField
{
    rotor
    {
        type            movingWallVelocity;
        value           nonuniform List<vector> 
96
(
(0.00409913 0.125498 -1.38778e-16)
(0.0122983 0.124961 0)
(0.0204448 0.123889 -1.3878e-16)
(0.0285037 0.122286 -1.38778e-16)
(0.0364406 0.12016 2.49352e-21)
(0.0442214 0.11752 -2.77556e-16)
(0.0518129 0.114376 1.38778e-16)
(0.0591825 0.110742 -1.38783e-16)
(0.0662987 0.106634 4.98704e-21)
(0.073131 0.10207 -1.38778e-16)
(0.0796501 0.0970685 -1.38773e-16)
(0.0858282 0.0916513 1.38783e-16)
(0.0916387 0.0858416 -1.38778e-16)
(0.0970568 0.0796644 -1.38778e-16)
(0.102059 0.073146 -1.38778e-16)
(0.106625 0.0663144 -1.38778e-16)
(0.110734 0.0591988 -4.98704e-21)
(0.114368 0.0518297 -1.38778e-16)
(0.117513 0.0442387 -1.38778e-16)
(0.120155 0.0364583 -1.38778e-16)
(0.122282 0.0285217 -2.49352e-21)
(0.123886 0.020463 -4.16334e-16)
(0.124959 0.0123166 -1.38777e-16)
(0.125497 0.00411757 -1.38778e-16)
(0.125498 -0.00409913 -1.38778e-16)
(0.124961 -0.0122983 1.24676e-21)
(0.123889 -0.0204448 0)
(0.122286 -0.0285037 1.3878e-16)
(0.12016 -0.0364406 0)
(0.11752 -0.0442214 -1.38778e-16)
(0.114376 -0.0518129 1.38778e-16)
(0.110742 -0.0591825 -4.98704e-21)
(0.106634 -0.0662987 -1.38778e-16)
(0.10207 -0.073131 -1.38783e-16)
(0.0970685 -0.0796501 0)
(0.0916513 -0.0858282 -1.38773e-16)
(0.0858416 -0.0916387 1.38783e-16)
(0.0796644 -0.0970568 0)
(0.073146 -0.102059 -2.77551e-16)
(0.0663144 -0.106625 -1.38778e-16)
(0.0591988 -0.110734 1.38778e-16)
(0.0518297 -0.114368 -1.38778e-16)
(0.0442387 -0.117513 0)
(0.0364583 -0.120155 1.38775e-16)
(0.0285217 -0.122282 2.49352e-21)
(0.020463 -0.123886 0)
(0.0123166 -0.124959 -1.38778e-16)
(0.00411757 -0.125497 -2.77555e-16)
(0.00261148 0.133484 -1.38778e-16)
(0.00291872 0.149188 0)
(0.00322595 0.164892 0)
(0.00353318 0.180596 -1.38778e-16)
(0.00384042 0.1963 0)
(0.00414765 0.212004 1.43493e-38)
(0.00445488 0.227708 2.86986e-38)
(0.00476212 0.243412 1.43493e-38)
(0.00506935 0.259116 0)
(0.00537658 0.27482 0)
(0.00568382 0.290524 0)
(0.00599105 0.306228 2.86986e-38)
(0.133484 -0.00261148 -2.86986e-38)
(0.149188 -0.00291872 0)
(0.164892 -0.00322595 0)
(0.180596 -0.00353318 0)
(0.1963 -0.00384042 1.38778e-16)
(0.212004 -0.00414765 0)
(0.227708 -0.00445488 -2.77556e-16)
(0.243412 -0.00476212 1.29144e-37)
(0.259116 -0.00506935 8.60958e-38)
(0.27482 -0.00537658 -2.77556e-16)
(0.290524 -0.00568381 -1.14794e-37)
(0.306228 -0.00599105 1.72192e-37)
(0.133484 -0.00261148 -1.43493e-38)
(0.149188 -0.00291872 1.38778e-16)
(0.164892 -0.00322595 0)
(0.180596 -0.00353318 0)
(0.1963 -0.00384042 1.38778e-16)
(0.212004 -0.00414765 2.86986e-38)
(0.227708 -0.00445488 4.30479e-38)
(0.243412 -0.00476212 -1.29144e-37)
(0.259116 -0.00506935 5.73972e-38)
(0.27482 -0.00537658 -1.43493e-37)
(0.290524 -0.00568381 0)
(0.306228 -0.00599105 1.72192e-37)
(-0.00261148 -0.133484 0)
(-0.00291872 -0.149188 -1.38778e-16)
(-0.00322595 -0.164892 0)
(-0.00353318 -0.180596 0)
(-0.00384042 -0.1963 7.17465e-38)
(-0.00414765 -0.212004 1.38778e-16)
(-0.00445488 -0.227708 1.38778e-16)
(-0.00476212 -0.243412 0)
(-0.00506935 -0.259116 1.38778e-16)
(-0.00537658 -0.27482 -1.38778e-16)
(-0.00568382 -0.290524 1.38778e-16)
(-0.00599105 -0.306228 1.38778e-16)
)
;
    }
    stator
    {
        type            movingWallVelocity;
        value           nonuniform 0();
    }
    AMI1
    {
        type            cyclicAMI;
        value           nonuniform List<vector> 
48
(
(-0.0132279 0.0797335 7.5406e-23)
(-0.0085523 0.0814432 -3.87655e-22)
(-0.00257713 0.0819972 1.57422e-21)
(0.00483646 0.0828253 -1.43576e-21)
(0.0131308 0.0829466 -4.06e-21)
(0.0221111 0.0823339 -3.27341e-21)
(0.0316336 0.0805621 1.64376e-20)
(0.0413681 0.0771566 -1.79207e-20)
(0.0508029 0.0719867 9.52621e-21)
(0.0592416 0.0652606 -1.19668e-22)
(0.0655585 0.0572759 -2.23582e-21)
(0.0683767 0.0481973 2.02223e-20)
(0.0696987 0.0400895 -9.81485e-22)
(0.0696551 0.0332445 1.59979e-20)
(0.0680142 0.0274954 -2.73423e-20)
(0.0666412 0.0239889 3.5869e-20)
(0.065108 0.0222992 1.2747e-20)
(0.064184 0.0221703 -9.03345e-21)
(0.0642836 0.0228763 6.77212e-21)
(0.0656254 0.0237407 3.2584e-20)
(0.0681181 0.0241314 -1.01491e-21)
(0.0713906 0.0235173 6.88029e-21)
(0.0748361 0.021488 -1.83633e-21)
(0.0777106 0.0178647 1.15551e-21)
(0.079532 0.0131452 4.87808e-22)
(0.0805901 0.00784679 5.0983e-23)
(0.0814072 0.00177265 6.47901e-22)
(0.0820653 -0.00528876 6.04941e-22)
(0.0823366 -0.0133087 -1.82789e-22)
(0.0818782 -0.0221726 2.09539e-20)
(0.0802827 -0.031645 2.6981e-20)
(0.0770336 -0.0413199 1.10531e-20)
(0.0719927 -0.0506676 1.57644e-20)
(0.0653068 -0.0589526 5.58625e-21)
(0.0571668 -0.0650486 -3.87532e-20)
(0.0481696 -0.0684877 2.85473e-21)
(0.0393755 -0.0700058 1.90399e-21)
(0.0320142 -0.0701969 5.6053e-21)
(0.0266812 -0.0692337 1.17282e-20)
(0.0234431 -0.0675851 5.62236e-20)