/*--------------------------------*- C++ -*----------------------------------*\
| =========                 |                                                 |
| \\      /  F ield         | OpenFOAM: The Open Source CFD Toolbox           |
|  \\    /   O peration     | Version:  v1806                                 |
|   \\  /    A nd           | Web:      www.OpenFOAM.com                      |
|    \\/     M anipulation  |                                                 |
\*---------------------------------------------------------------------------*/
FoamFile
{
    version     2.0;
    format      ascii;
    class       volScalarField;
    location    "150/air";
    object      k;
}
// * * * * * * * * * * * * * * * * * * * * * * * * * * * * * * * * * * * * * //

dimensions      [0 2 -2 0 0 0 0];


internalField   nonuniform List<scalar> 
243000
(
0.0491838
0.0534468
0.0561014
0.0571105
0.056529
0.054869
0.0528328
0.0515415
0.0518494
0.0561044
0.0640254
0.0731037
0.0820994
0.0909992
0.0985684
0.104775
0.107597
0.108047
0.101484
0.0944911
0.0868173
0.0789955
0.071314
0.0642066
0.0581075
0.0533452
0.0500712
0.0478789
0.0469255
0.0465213
0.0937674
0.0983541
0.101208
0.101334
0.0992745
0.0958682
0.0924485
0.0910763
0.0932813
0.102178
0.114569
0.128623
0.142517
0.156952
0.169323
0.179566
0.184959
0.186481
0.17613
0.164539
0.151384
0.138215
0.125332
0.113679
0.103705
0.0959506
0.0905197
0.0868177
0.0850756
0.0849376
0.116761
0.122742
0.125925
0.125799
0.123153
0.119103
0.115279
0.114208
0.117983
0.129371
0.143575
0.159498
0.175268
0.191624
0.205815
0.217376
0.223472
0.225057
0.213652
0.20036
0.185189
0.169863
0.154857
0.141245
0.129564
0.12042
0.11397
0.109661
0.107532
0.107356
0.135005
0.142057
0.145363
0.145051
0.142023
0.137608
0.133655
0.13306
0.1385
0.15143
0.166758
0.183673
0.200443
0.217748
0.232938
0.245141
0.251468
0.252953
0.24128
0.227132
0.210849
0.194209
0.177869
0.162981
0.150151
0.140059
0.132909
0.128227
0.12584
0.125559
0.151581
0.159348
0.162512
0.161928
0.158526
0.153829
0.149864
0.149871
0.156917
0.170845
0.186872
0.204307
0.221605
0.239413
0.255221
0.26783
0.274249
0.275683
0.26415
0.249634
0.232692
0.215166
0.197876
0.182045
0.168346
0.157537
0.149877
0.144948
0.142392
0.141997
0.168395
0.176608
0.179327
0.178248
0.174351
0.169337
0.165382
0.166082
0.174528
0.189111
0.205562
0.223275
0.240858
0.258972
0.275248
0.288244
0.294791
0.296336
0.285195
0.270598
0.253232
0.235032
0.216979
0.200373
0.185953
0.174564
0.166515
0.161438
0.15879
0.158314
0.186812
0.195269
0.197239
0.195354
0.190736
0.18527
0.181281
0.182719
0.192248
0.207271
0.223947
0.241795
0.259524
0.277876
0.294594
0.308063
0.314874
0.316752
0.306215
0.291763
0.27414
0.255406
0.236686
0.219381
0.204311
0.192414
0.184065
0.178929
0.17628
0.175773
0.207921
0.216454
0.217354
0.214288
0.208641
0.202517
0.198394
0.200513
0.210803
0.226067
0.242806
0.260677
0.27846
0.297021
0.314215
0.328287
0.335545
0.338009
0.32833
0.314248
0.296542
0.277416
0.258114
0.240172
0.224492
0.212142
0.203574
0.198468
0.195924
0.195434
0.232581
0.241025
0.240573
0.235892
0.228816
0.221786
0.217376
0.220013
0.230738
0.246027
0.262655
0.280435
0.298169
0.31691
0.334609
0.349423
0.35734
0.360642
0.352129
0.338696
0.321141
0.301821
0.282081
0.263603
0.247383
0.23464
0.225947
0.220983
0.218661
0.218259
0.26147
0.269578
0.267503
0.260761
0.251824
0.243591
0.238706
0.241591
0.252404
0.267457
0.28377
0.301301
0.318861
0.337711
0.355904
0.371583
0.380367
0.384743
0.37772
0.365296
0.348215
0.329007
0.309076
0.290257
0.273636
0.260617
0.251928
0.247243
0.2453
0.245133
0.294939
0.302356
0.298367
0.289168
0.277974
0.268214
0.262624
0.265402
0.275912
0.290429
0.306165
0.323245
0.340444
0.35928
0.377894
0.394528
0.404362
0.410038
0.404805
0.393796
0.377611
0.358927
0.339191
0.320351
0.303586
0.290497
0.281988
0.277754
0.276367
0.276629
0.332788
0.339089
0.332936
0.32098
0.307209
0.295617
0.289067
0.291333
0.3011
0.314725
0.329582
0.345943
0.362549
0.381184
0.400074
0.417699
0.428722
0.435935
0.432715
0.42353
0.408728
0.391081
0.372054
0.353657
0.337138
0.324286
0.3162
0.31261
0.311967
0.312816
0.374243
0.37897
0.370476
0.355588
0.339045
0.325394
0.317623
0.318932
0.327486
0.33983
0.353458
0.368794
0.384519
0.402731
0.421685
0.440279
0.452582
0.461558
0.460551
0.453494
0.440553
0.424514
0.406814
0.389449
0.373698
0.361489
0.354116
0.351383
0.35163
0.353172
0.41796
0.420677
0.409773
0.391951
0.372596
0.356749
0.347509
0.347378
0.354268
0.36491
0.376924
0.3909
0.405459
0.423005
0.441779
0.461255
0.474878
0.485711
0.487095
0.482436
0.471753
0.457869
0.44214
0.426495
0.412146
0.401067
0.394724
0.393045
0.394261
0.396548
0.462168
0.462575
0.449344
0.428749
0.406669
0.388562
0.377569
0.375559
0.380299
0.388788
0.398797
0.411062
0.424256
0.440934
0.459305
0.479517
0.49446
0.507128
0.51085
0.508865
0.500785
0.489526
0.476348
0.463094
0.450862
0.441486
0.436521
0.436024
0.438237
0.441256
0.504906
0.502993
0.487512
0.464309
0.439676
0.419338
0.40635
0.402031
0.404098
0.409987
0.417655
0.427977
0.439693
0.455355
0.473195
0.493968
0.51017
0.524569
0.53053
0.53129
0.52604
0.517781
0.507623
0.497318
0.487831
0.48079
0.477652
0.478464
0.481665
0.485361
0.544279
0.539969
0.522279
0.496728
0.469827
0.447368
0.432172
0.425117
0.424057
0.426993
0.432117
0.440403
0.450632
0.465199
0.482442
0.503598
0.520893
0.536931
0.544943
0.548282
0.545966
0.54088
0.534113
0.527206
0.520941
0.516768
0.515953
0.5183
0.522553
0.526834
0.578093
0.571321
0.551599
0.524076
0.49528
0.470851
0.453244
0.443086
0.438667
0.438471
0.441006
0.447328
0.456144
0.469598
0.486201
0.507561
0.525725
0.543136
0.553058
0.558681
0.559177
0.557251
0.554023
0.550773
0.548102
0.54721
0.548998
0.553184
0.558629
0.563419
0.603913
0.594889
0.573483
0.54445
0.514179
0.488011
0.467866
0.45451
0.446798
0.443708
0.443872
0.448434
0.455861
0.468364
0.48425
0.505457
0.52408
0.542678
0.554066
0.561702
0.564604
0.565589
0.565811
0.566278
0.56739
0.569944
0.574498
0.58062
0.587222
0.592435
0.619761
0.608789
0.58597
0.555997
0.524666
0.497206
0.474988
0.459995
0.450587
0.445885
0.444779
0.448117
0.454609
0.465833
0.480418
0.499634
0.516832
0.535301
0.547745
0.556782
0.561502
0.564948
0.568325
0.572454
0.577132
0.583076
0.590487
0.598551
0.606217
0.611679
0.624244
0.612078
0.588822
0.558582
0.527358
0.501182
0.479224
0.463001
0.452153
0.446122
0.443965
0.446441
0.452195
0.462419
0.475933
0.493483
0.509503
0.526394
0.537905
0.546268
0.551053
0.555416
0.56116
0.568154
0.576163
0.585168
0.595209
0.605208
0.613836
0.619357
0.615736
0.602754
0.580755
0.555158
0.527271
0.502286
0.480582
0.463545
0.451359
0.444159
0.441366
0.44331
0.448522
0.457988
0.470618
0.486755
0.501732
0.51713
0.527748
0.535414
0.54014
0.544835
0.550686
0.558015
0.566522
0.575912
0.587551
0.599119
0.608529
0.613851
0.596439
0.586952
0.569343
0.547855
0.523334
0.499814
0.478575
0.461052
0.448022
0.440127
0.437056
0.438739
0.443585
0.452473
0.464354
0.479273
0.493269
0.507272
0.516977
0.523912
0.528421
0.533066
0.538712
0.545945
0.554545
0.56408
0.575235
0.585466
0.593078
0.596514
0.574249
0.567723
0.554302
0.536482
0.515112
0.493347
0.472958
0.455644
0.442422
0.434243
0.431202
0.432794
0.437407
0.445824
0.457037
0.470874
0.483919
0.496627
0.505382
0.51155
0.515677
0.519971
0.525146
0.531897
0.540083
0.54932
0.559568
0.568302
0.574091
0.575812
0.548678
0.544852
0.535448
0.521298
0.503077
0.48337
0.464276
0.447705
0.43483
0.426778
0.423942
0.425514
0.429967
0.437978
0.448573
0.461414
0.473515
0.485003
0.492776
0.498131
0.501723
0.505466
0.510001
0.516017
0.523396
0.531752
0.540548
0.547457
0.551221
0.551298
0.520009
0.518608
0.512999
0.502537
0.48758
0.470236
0.452865
0.437527
0.425443
0.417855
0.415305
0.416916
0.421296
0.42897
0.438973
0.450874
0.462026
0.472312
0.479048
0.483497
0.486388
0.489409
0.493164
0.498265
0.504595
0.51171
0.518693
0.523473
0.524909
0.523356
0.489152
0.48978
0.48764
0.480679
0.469033
0.454277
0.438941
0.425218
0.414384
0.40763
0.405629
0.407445
0.411885
0.419383
0.428934
0.440032
0.450262
0.459274
0.464861
0.468152
0.469991
0.471942
0.47462
0.478535
0.483555
0.489175
0.494254
0.496853
0.49601
0.492926
0.45572
0.458185
0.459178
0.455643
0.44747
0.43582
0.423157
0.411878
0.403273
0.398251
0.397414
0.399967
0.404974
0.412662
0.422234
0.433013
0.442564
0.450293
0.454492
0.456076
0.455992
0.455877
0.456444
0.458227
0.461088
0.464489
0.467232
0.467366
0.464304
0.459642
0.430858
0.434862
0.437962
0.437257
0.432949
0.425719
0.417513
0.410625
0.405842
0.403846
0.404967
0.408692
0.414413
0.42241
0.432151
0.44297
0.452347
0.459315
0.462604
0.462415
0.459895
0.456742
0.453858
0.451824
0.450741
0.450258
0.449397
0.446583
0.441064
0.434422
0.492473
0.492489
0.491834
0.489689
0.486182
0.481504
0.476573
0.472244
0.468854
0.466644
0.465766
0.46643
0.468764
0.473141
0.479482
0.487336
0.494772
0.501308
0.506274
0.509243
0.510165
0.509717
0.508644
0.507408
0.506204
0.505082
0.503926
0.502052
0.498933
0.494728
0.0980621
0.105872
0.109454
0.109518
0.10677
0.102771
0.0992588
0.0989961
0.103171
0.11199
0.122642
0.135393
0.14847
0.162421
0.174712
0.184824
0.189908
0.190834
0.180879
0.169743
0.15681
0.143668
0.130828
0.119117
0.109149
0.101305
0.095904
0.0928016
0.0919549
0.0923192
0.194681
0.20831
0.213601
0.211382
0.204516
0.196172
0.190155
0.190851
0.199602
0.21486
0.232455
0.252731
0.27369
0.29688
0.318113
0.335045
0.344318
0.345953
0.329663
0.310323
0.287415
0.264395
0.242503
0.223064
0.206546
0.193781
0.185274
0.180772
0.180256
0.182023
0.251319
0.268647
0.274947
0.272329
0.264607
0.255733
0.250023
0.252594
0.264115
0.281903
0.302118
0.324965
0.348492
0.374166
0.397954
0.416146
0.425979
0.427102
0.409781
0.387973
0.362073
0.335688
0.31047
0.287915
0.268732
0.253746
0.243603
0.238128
0.237237
0.239247
0.298906
0.319109
0.325301
0.321791
0.312946
0.303464
0.298068
0.302082
0.315275
0.334401
0.355906
0.379796
0.404327
0.430829
0.455701
0.474189
0.484004
0.484878
0.46798
0.445532
0.418417
0.390353
0.363305
0.338955
0.318146
0.301839
0.29076
0.284884
0.283949
0.286468
0.347095
0.369789
0.375147
0.370233
0.359726
0.349159
0.343727
0.348701
0.363022
0.38301
0.405321
0.429831
0.454963
0.481999
0.507727
0.526543
0.536447
0.537503
0.521591
0.499193
0.471357
0.442034
0.413483
0.387609
0.36539
0.348032
0.336379
0.330525
0.329952
0.33333
0.400657
0.425338
0.42927
0.422511
0.409929
0.397872
0.392059
0.397528
0.412564
0.43312
0.455975
0.48097
0.506598
0.534172
0.560819
0.580182
0.590474
0.592205
0.577692
0.555792
0.527524
0.497111
0.467137
0.439746
0.416142
0.397826
0.385806
0.380316
0.380357
0.38477
0.461927
0.487912
0.4901
0.481301
0.466446
0.452643
0.446166
0.451634
0.466969
0.487739
0.510845
0.536117
0.562089
0.59017
0.617743
0.637842
0.648863
0.651742
0.639161
0.61832
0.590104
0.558966
0.527766
0.498931
0.473955
0.454694
0.442405
0.437454
0.438169
0.443605
0.531888
0.558374
0.558772
0.547927
0.530811
0.515184
0.507807
0.512713
0.527791
0.548238
0.571149
0.596302
0.622321
0.65064
0.678969
0.699874
0.71191
0.71636
0.706374
0.687357
0.65994
0.628756
0.596837
0.566921
0.540775
0.520674
0.508179
0.503766
0.50508
0.511338
0.610515
0.636601
0.635401
0.62259
0.603403
0.586045
0.577576
0.58129
0.595356
0.614749
0.636809
0.66124
0.686774
0.714824
0.74348
0.765132
0.778389
0.784717
0.777976
0.761778
0.736212
0.706005
0.674295
0.64402
0.617215
0.596536
0.583907
0.579913
0.581639
0.588451
0.696919
0.721721
0.719027
0.704506
0.683596
0.664695
0.654963
0.656808
0.668955
0.686389
0.706756
0.729674
0.754001
0.781042
0.809383
0.831624
0.846188
0.854288
0.851422
0.839303
0.816841
0.788956
0.758744
0.729207
0.702576
0.681813
0.669181
0.66541
0.667294
0.674323
0.789353
0.812056
0.807975
0.792081
0.769867
0.749661
0.738427
0.737798
0.746989
0.761497
0.779183
0.7997
0.821917
0.847094
0.874334
0.896946
0.912848
0.923117
0.924209
0.916988
0.898993
0.874893
0.847725
0.820322
0.795002
0.774872
0.762469
0.758721
0.760452
0.767262
0.885397
0.905305
0.89993
0.882999
0.859908
0.838627
0.825574
0.822045
0.827193
0.83779
0.851767
0.868939
0.888081
0.910524
0.935871
0.958588
0.975822
0.989119
0.993865
0.991676
0.979414
0.960534
0.938021
0.914328
0.891653
0.873073
0.861273
0.857399
0.858692
0.864816
0.982122
0.998603
0.9919
0.974191
0.950646
0.928531
0.913524
0.906547
0.90681
0.912533
0.921757
0.934704
0.949823
0.968852
0.991643
1.01416
1.03269
1.04995
1.0588
1.06091
1.05479
1.04231
1.02593
1.00754
0.988984
0.973023
0.962281
0.9582
0.958858
0.963877
1.0758
1.08831
1.08061
1.06275
1.03922
1.01636
0.99898
0.987781
0.98271
0.982544
0.986029
0.993995
1.00443
1.0197
1.03958
1.06163
1.08128
1.10104
1.11544
1.12231
1.12195
1.11665
1.10754
1.09588
1.08292
1.07079
1.06143
1.05693
1.05685
1.06049
1.16331
1.17208
1.16405
1.14656
1.12303
1.09909
1.07847
1.06211
1.05076
1.04384
1.04101
1.04316
1.0493
1.06103
1.0781
1.09945
1.1201
1.14185
1.15947
1.17167
1.17802
1.18029
1.17923
1.17527
1.16912
1.16212
1.15521
1.15029
1.14915
1.15132
1.24283
1.24826
1.23938
1.22131
1.19749
1.17211
1.14763
1.12541
1.10677
1.09247
1.08328
1.0802
1.08249
1.09148
1.10634
1.12685
1.14833
1.17147
1.19197
1.20873
1.22115
1.2307
1.23776
1.24203
1.24341
1.24265
1.23992
1.23617
1.23379
1.23441
1.31229
1.31265
1.30177
1.28317
1.25923
1.23214
1.20322
1.17424
1.14805
1.12673
1.11189
1.10465
1.10406
1.11125
1.12456
1.14424
1.16594
1.18995
1.21241
1.23253
1.24995
1.26592
1.28072
1.2932
1.30243
1.30838
1.31114
1.31073
1.30878
1.30794
1.36568
1.3606
1.34814
1.32957
1.30561
1.27634
1.24238
1.20651
1.17354
1.14657
1.12756
1.11765
1.11569
1.12202
1.13457
1.15336
1.17461
1.19838
1.22158
1.24356
1.26426
1.28516
1.30651
1.32645
1.34344
1.35605
1.36397
1.36773
1.36839
1.36695
1.39683
1.38976
1.37684
1.35894
1.3349
1.30301
1.26403
1.22188
1.1836
1.1527
1.13104
1.12013
1.11852
1.12501
1.13817
1.15702
1.17746
1.20002
1.22278
1.2449
1.2666
1.28984
1.31518
1.34083
1.36489
1.38408
1.39687
1.40329
1.40452
1.40248
1.40832
1.39985
1.38753
1.37079
1.34666
1.31316
1.27107
1.22434
1.17972
1.14458
1.12186
1.11163
1.11155
1.11917
1.13401
1.15428
1.17518
1.19723
1.21851
1.23871
1.25903
1.28203
1.30946
1.34041
1.36911
1.39249
1.40951
1.41835
1.4201
1.41745
1.40041
1.39136
1.38109
1.36641
1.34171
1.30337
1.2555
1.20524
1.15927
1.12466
1.10349
1.09544
1.09737
1.10672
1.12339
1.14475
1.1658
1.18786
1.20823
1.22661
1.24469
1.26553
1.29117
1.32193
1.35357
1.38117
1.40162
1.41296
1.41504
1.41215
1.37386
1.36524
1.35672
1.34083
1.31397
1.27363
1.22424
1.17368
1.12942
1.09753
1.07947
1.07457
1.07859
1.08994
1.10828
1.13062
1.15186
1.17345
1.19209
1.20733
1.22173
1.23868
1.26086
1.28935
1.32135
1.35148
1.3742
1.3872
1.3901
1.38718
1.32742
1.31835
1.31076
1.29652
1.2701
1.23042
1.1825
1.13486
1.09488
1.06746
1.05349
1.05181
1.05781
1.07048
1.08989
1.11307
1.13473
1.15585
1.17223
1.18417
1.19449
1.20668
1.22291
1.24537
1.27301
1.30097
1.32414
1.33864
1.34339
1.34145
1.25714
1.25199
1.24848
1.23801
1.21464
1.17863
1.13566
1.09435
1.06098
1.03892
1.02924
1.02988
1.03658
1.04942
1.06858
1.09237
1.11491
1.13594
1.14999
1.15894
1.16541
1.17278
1.18299
1.19755
1.21676
1.23865
1.25745
1.26904
1.27226
1.27037
1.1724
1.17309
1.17493
1.17037
1.15322
1.12458
1.09028
1.05778
1.03238
1.01605
1.00861
1.00941
1.01497
1.02649
1.04543
1.0696
1.09249
1.11345
1.12575
1.13241
1.13588
1.13931
1.14449
1.1524
1.16264
1.17337
1.18306
1.18787
1.18668
1.18343
1.08346
1.08968
1.09792
1.10087
1.09308
1.07443
1.05101
1.02863
1.01026
0.997166
0.988989
0.987748
0.993441
1.00467
1.02169
1.04469
1.06709
1.08733
1.09815
1.10337
1.10509
1.10614
1.10797
1.1111
1.11481
1.11711
1.11604
1.11032
1.10041
1.09205
1.01459
1.02377
1.03571
1.0432
1.04298
1.03222
1.01603
0.999541
0.984828
0.973015
0.966286
0.965904
0.970228
0.979601
0.993612
1.01395
1.03472
1.05306
1.06324
1.06798
1.0691
1.06911
1.06902
1.06907
1.0686
1.06624
1.06031
1.04944
1.03473
1.02196
0.944333
0.954749
0.967755
0.976688
0.978904
0.972039
0.959788
0.947169
0.935959
0.927377
0.922745
0.922819
0.926884
0.935424
0.947573
0.966622
0.987507
1.00538
1.01591
1.02033
1.02067
1.01898
1.01604
1.01241
1.00796
1.00207
0.993651
0.98109
0.965098
0.951042
0.855991
0.862997
0.872045
0.878126
0.879583
0.875087
0.867129
0.859507
0.853432
0.849618
0.84904
0.852123
0.859359
0.871602
0.887899
0.91099
0.934516
0.954148
0.965499
0.969164
0.967092
0.960914
0.951964
0.941634
0.930576
0.919055
0.906876
0.892779
0.876829
0.862975
0.803508
0.803451
0.803925
0.802906
0.800154
0.795686
0.790698
0.786742
0.784536
0.784599
0.787467
0.79424
0.805941
0.824402
0.848506
0.879427
0.908696
0.933065
0.947858
0.95322
0.950347
0.94096
0.927286
0.91112
0.893804
0.876332
0.859394
0.842752
0.826201
0.811112
0.146312
0.155962
0.158782
0.157465
0.153011
0.14822
0.144539
0.145587
0.151785
0.162324
0.174682
0.190326
0.2065
0.224538
0.240215
0.252848
0.258985
0.259557
0.246846
0.232753
0.215924
0.199151
0.182646
0.16781
0.155671
0.146085
0.139443
0.135833
0.134695
0.135218
0.288982
0.309789
0.317137
0.315445
0.307706
0.297624
0.290747
0.292941
0.304376
0.323205
0.344922
0.369139
0.394495
0.422798
0.449015
0.468111
0.477148
0.475871
0.455779
0.431318
0.402789
0.374709
0.348343
0.325098
0.30483
0.289525
0.279467
0.274615
0.274033
0.276564
0.366768
0.390677
0.398985
0.396703
0.388132
0.377649
0.371296
0.374655
0.388044
0.408974
0.432477
0.458762
0.486304
0.516531
0.544726
0.56432
0.573385
0.571163
0.550311
0.523564
0.49235
0.461253
0.432207
0.406809
0.385231
0.368751
0.357884
0.352551
0.351681
0.354463
0.429875
0.454843
0.462622
0.459355
0.449949
0.43913
0.433212
0.437146
0.451293
0.472268
0.495968
0.522316
0.549722
0.579404
0.607183
0.625981
0.634587
0.632308
0.612702
0.586347
0.555208
0.523703
0.494181
0.468364
0.446898
0.430352
0.419626
0.414452
0.413695
0.416722
0.491874
0.517034
0.52346
0.518896
0.508419
0.497169
0.491372
0.49536
0.50938
0.529397
0.552472
0.578048
0.604336
0.632608
0.659166
0.676982
0.685157
0.683513
0.666059
0.641358
0.611532
0.580811
0.551747
0.526177
0.505025
0.489218
0.47901
0.474371
0.474039
0.477468
0.558391
0.583091
0.587619
0.581593
0.569935
0.558209
0.552188
0.555708
0.568693
0.587608
0.609291
0.633139
0.657709
0.684172
0.709202
0.726107
0.734058
0.733591
0.718841
0.696642
0.668977
0.639889
0.611956
0.587059
0.566466
0.551443
0.542258
0.538411
0.538545
0.542246
0.631818
0.655531
0.658054
0.650704
0.637971
0.625583
0.619136
0.621329
0.632595
0.649494
0.669111
0.690868
0.713302
0.737724
0.761068
0.777147
0.785097
0.786136
0.774563
0.755555
0.730796
0.704175
0.678198
0.654758
0.635161
0.620951
0.612603
0.609517
0.610064
0.614063
0.712482
0.734756
0.735499
0.727048
0.71339
0.700176
0.692827
0.693352
0.702234
0.716412
0.733362
0.752568
0.772505
0.794671
0.816175
0.831447
0.839524
0.842215
0.83422
0.818974
0.797861
0.774602
0.751435
0.730153
0.712064
0.698861
0.691284
0.68875
0.689536
0.693627
0.799384
0.819832
0.819305
0.810074
0.795771
0.781774
0.773159
0.771732
0.77749
0.788278
0.801998
0.818236
0.835357
0.855075
0.874586
0.88898
0.897156
0.90148
0.89724
0.886186
0.869403
0.850397
0.831023
0.812752
0.796796
0.784868
0.777998
0.775693
0.776376
0.78022
0.890672
0.909023
0.907651
0.898015
0.883431
0.868803
0.858713
0.854937
0.857073
0.863918
0.873975
0.88693
0.901037
0.91824
0.935798
0.949205
0.957296
0.962908
0.962195
0.955536
0.94356
0.929587
0.914954
0.90061
0.887508
0.877227
0.871021
0.868595
0.868814
0.872063
0.984144
1.00018
0.998195
0.988442
0.973856
0.95874
0.947052
0.940482
0.938835
0.941447
0.947604
0.957174
0.968332
0.983197
0.998901
1.01124
1.01902
1.02552
1.02761
1.02499
1.01798
1.00949
1.00033
0.990728
0.981239
0.973058
0.967587
0.964868
0.964387
0.966842
1.0774
1.0909
1.08837
1.07862
1.06413
1.04854
1.03514
1.02548
1.02003
1.01855
1.02091
1.02724
1.03593
1.0488
1.06292
1.07417
1.0814
1.0883
1.0923
1.0928
1.0903
1.08725
1.08383
1.07953
1.07431
1.0688
1.06439
1.06153
1.06033
1.06199
1.16777
1.17849
1.17538
1.16557
1.15111
1.13493
1.11966
1.10689
1.09779
1.09272
1.09185
1.09546
1.10248
1.11397
1.12698
1.13721
1.14372
1.15045
1.15543
1.15769
1.15855
1.16025
1.16222
1.16328
1.16282
1.1606
1.15783
1.15532
1.15372
1.1547
1.25222
1.25985
1.25599
1.24598
1.23138
1.21447
1.19728
1.18169
1.16949
1.16157
1.15848
1.16039
1.1668
1.17777
1.19034
1.19974
1.20542
1.21142
1.21638
1.21894
1.22132
1.22634
1.23271
1.23864
1.24289
1.24447
1.24408
1.24265
1.24124
1.24181
1.32718
1.3314
1.32658
1.3162
1.30136
1.28373
1.26491
1.24715
1.23276
1.22315
1.21911
1.22079
1.22785
1.23932
1.25231
1.26118
1.26606
1.27092
1.27487
1.27617
1.27799
1.28417
1.29319
1.30276
1.31108
1.31666
1.31917
1.31954
1.3191
1.31964
1.38856
1.38917
1.38314
1.37237
1.35755
1.33961
1.31993
1.30098
1.28567
1.27583
1.27242
1.27564
1.28467
1.2977
1.31203
1.32088
1.32515
1.32867
1.33089
1.32939
1.32849
1.33322
1.34257
1.35385
1.36481
1.37362
1.37921
1.3819
1.38303
1.38409
1.43185
1.42911
1.42185
1.41131
1.39737
1.38007
1.36044
1.34154
1.32686
1.31848
1.3175
1.32398
1.3362
1.35173
1.36823
1.37778
1.38192
1.38423
1.38429
1.37882
1.37325
1.37372
1.38076
1.39125
1.40278
1.41316
1.42093
1.42579
1.42874
1.43076
1.45363
1.44802
1.44061
1.43181
1.41985
1.40406
1.38542
1.36791
1.35552
1.35027
1.35362
1.36473
1.38109
1.3998
1.41907
1.43018
1.43491
1.43667
1.43446
1.42447
1.41299
1.40648
1.40853
1.41549
1.42506
1.4349
1.44314
1.44884
1.45287
1.45583
1.45414
1.44691
1.44122
1.43482
1.42515
1.41156
1.39473
1.37983
1.3715
1.37124
1.38066
1.39731
1.41844
1.44064
1.46276
1.47594
1.4821
1.4842
1.48017
1.46571
1.44764
1.43281
1.427
1.4279
1.43298
1.44
1.4468
1.45162
1.45518
1.4583
1.43403
1.42663
1.42343
1.42067
1.41463
1.40384
1.39048
1.3798
1.37607
1.38256
1.3988
1.42146
1.44757
1.47327
1.49834
1.51418
1.52223
1.52509
1.51963
1.5012
1.47653
1.45297
1.4378
1.42997
1.42894
1.43119
1.43433
1.4364
1.43809
1.44016
1.39823
1.39209
1.39197
1.39249
1.3902
1.38312
1.37413
1.36893
1.3716
1.38488
1.40832
1.43679
1.46761
1.4966
1.52481
1.54386
1.55457
1.55884
1.55252
1.53052
1.49953
1.46731
1.44236
1.42399
1.41506
1.41085
1.40881
1.407
1.4058
1.4059
1.35139
1.3477
1.35067
1.3545
1.3557
1.35294
1.34937
1.35032
1.35938
1.37904
1.40849
1.44295
1.47796
1.5099
1.54132
1.56406
1.5785
1.58484
1.57827
1.55341
1.51713
1.47736
1.44111
1.41267
1.3944
1.38251
1.37428
1.36763
1.36271
1.36044
1.29857
1.29779
1.30381
1.31101
1.31572
1.31741
1.3192
1.32587
1.34108
1.36667
1.40125
1.43901
1.47762
1.51263
1.54729
1.57426
1.59341
1.60267
1.59641
1.5701
1.52988
1.48361
1.43717
1.39881
1.3704
1.35022
1.33512
1.32295
1.31366
1.30868
1.24446
1.24631
1.25535
1.26573
1.27381
1.27949
1.28601
1.29784
1.31823
1.34844
1.38653
1.42685
1.4675
1.50462
1.54256
1.57443
1.59896
1.61228
1.60706
1.58076
1.53818
1.486
1.4321
1.38517
1.34683
1.31806
1.29555
1.27723
1.26311
1.25509
1.19298
1.19699
1.20829
1.2211
1.23193
1.241
1.25155
1.26763
1.29194
1.325
1.36443
1.40542
1.44689
1.48598
1.52741
1.56494
1.59551
1.61372
1.61062
1.58544
1.54107
1.48527
1.42684
1.37314
1.32712
1.28954
1.25947
1.23475
1.2154
1.20384
1.14729
1.15242
1.16469
1.17872
1.19145
1.20316
1.21689
1.23599
1.26243
1.29605
1.33466
1.3747
1.41602
1.45699
1.50227
1.54639
1.58356
1.60748
1.60734
1.58301
1.53915
1.48282
1.42199
1.36376
1.31219
1.26765
1.23038
1.19908
1.17417
1.15834
1.11163
1.11645
1.12793
1.14132
1.1544
1.16723
1.18229
1.20226
1.22859
1.26057
1.29667
1.3345
1.37487
1.41786
1.46771
1.51964
1.56401
1.5941
1.59827
1.57706
1.53491
1.4795
1.41809
1.35739
1.30173
1.25255
1.20971
1.17316
1.14317
1.12292
1.08634
1.08927
1.09823
1.10917
1.12059
1.13252
1.14671
1.16527
1.18908
1.21749
1.24974
1.28445
1.32362
1.36927
1.42484
1.4861
1.53829
1.57478
1.58437
1.56733
1.5288
1.47596
1.41563
1.35438
1.29646
1.24403
1.19773
1.1573
1.1232
1.09844
1.07634
1.07513
1.07939
1.08569
1.09315
1.10181
1.11269
1.12716
1.14599
1.16892
1.19609
1.22718
1.2655
1.31479
1.37727
1.44916
1.50947
1.55247
1.56791
1.55616
1.52275
1.47374
1.41706
1.35866
1.30122
1.24719
1.19815
1.15485
1.11837
1.09042
1.09952
1.0915
1.08767
1.086
1.08611
1.08808
1.09207
1.09907
1.10984
1.12487
1.14523
1.17202
1.20956
1.26256
1.332
1.41433
1.48225
1.53154
1.5528
1.54733
1.52017
1.47799
1.42913
1.37618
1.32299
1.27204
1.22502
1.1828
1.14627
1.11681
0.184328
0.193533
0.195725
0.193888
0.189024
0.183169
0.178521
0.178191
0.181838
0.18955
0.199063
0.211878
0.225637
0.242757
0.258099
0.271083
0.277588
0.279919
0.268379
0.255839
0.241024
0.22659
0.212545
0.199727
0.18832
0.179104
0.172989
0.170054
0.169252
0.169765
0.36682
0.387299
0.394273
0.392513
0.385034
0.375803
0.368718
0.367155
0.3717
0.382631
0.396794
0.415206
0.436348
0.462966
0.489135
0.509086
0.518852
0.519465
0.500543
0.477916
0.452494
0.428461
0.40662
0.387945
0.372656
0.36135
0.354428
0.351572
0.351567
0.355015
0.458625
0.481662
0.489688
0.48754
0.479005
0.468406
0.460311
0.458269
0.462927
0.474255
0.489136
0.508077
0.530317
0.558171
0.586048
0.606389
0.616134
0.615911
0.59684
0.57269
0.545811
0.520264
0.497348
0.478093
0.462848
0.452071
0.445685
0.443165
0.443065
0.446577
0.526712
0.549795
0.557321
0.554346
0.544818
0.533115
0.524149
0.521419
0.525441
0.535828
0.549754
0.567424
0.588561
0.615085
0.642039
0.66126
0.670204
0.669812
0.652633
0.629805
0.604403
0.58004
0.558332
0.54039
0.526643
0.517502
0.512502
0.510796
0.510872
0.514066
0.588436
0.610589
0.616688
0.612495
0.601724
0.588773
0.578691
0.574888
0.57785
0.586564
0.598733
0.6144
0.633508
0.657792
0.683017
0.700909
0.708974
0.708884
0.694297
0.673974
0.651278
0.629306
0.609807
0.59396
0.582299
0.5752
0.571979
0.57142
0.572018
0.575084
0.650833
0.671766
0.67592
0.670162
0.657787
0.643286
0.631653
0.626524
0.628142
0.634777
0.644758
0.658089
0.674772
0.696449
0.719651
0.736312
0.743638
0.744048
0.732229
0.714913
0.695564
0.676694
0.660014
0.646752
0.637482
0.632588
0.631294
0.632045
0.633476
0.636741
0.717688
0.737164
0.739113
0.731583
0.717331
0.701002
0.687519
0.680744
0.680778
0.685034
0.692565
0.703376
0.717483
0.736555
0.75779
0.773213
0.77989
0.780763
0.771632
0.757515
0.741907
0.726771
0.713474
0.703208
0.696436
0.693816
0.694405
0.696594
0.699051
0.702788
0.79031
0.808095
0.807961
0.79863
0.782462
0.7642
0.74881
0.740471
0.738686
0.740262
0.744951
0.753071
0.764633
0.781285
0.800778
0.814999
0.820864
0.821996
0.815258
0.804383
0.79288
0.78201
0.772606
0.7657
0.761448
0.76094
0.763317
0.766935
0.770441
0.774746
0.8683
0.884172
0.882387
0.8714
0.85354
0.833502
0.816437
0.806683
0.802894
0.801756
0.80344
0.80878
0.817964
0.832511
0.850563
0.863589
0.868321
0.869269
0.864487
0.856798
0.849529
0.843251
0.838139
0.834852
0.833154
0.834308
0.838341
0.843198
0.847589
0.85241
0.949975
0.963865
0.96079
0.948548
0.929476
0.908117
0.889974
0.879165
0.873445
0.869684
0.868591
0.871255
0.878369
0.891237
0.908211
0.919975
0.923097
0.923225
0.919805
0.914973
0.911759
0.910085
0.909425
0.909791
0.910485
0.912982
0.918226
0.924006
0.929012
0.934181
1.03282
1.04474
1.04072
1.02776
1.00815
0.98634
0.967968
0.956723
0.949475
0.943454
0.940054
0.94058
0.946055
0.957815
0.974105
0.98445
0.985371
0.983879
0.981086
0.978481
0.978768
0.981242
0.984709
0.988433
0.991269
0.994697
1.00054
1.00686
1.01219
1.01753
1.11385
1.12386
1.11925
1.10618
1.08686
1.06578
1.0483
1.03745
1.02942
1.02187
1.0169
1.01611
1.02069
1.03199
1.04798
1.05668
1.05472
1.05085
1.04782
1.04653
1.04925
1.05495
1.06176
1.06815
1.07255
1.07636
1.08219
1.08855
1.094
1.09938
1.18986
1.19808
1.19328
1.18079
1.16282
1.1438
1.12851
1.11908
1.1113
1.10332
1.09787
1.09664
1.10138
1.1129
1.12888
1.13561
1.13024
1.1234
1.11929
1.11809
1.12193
1.12942
1.13823
1.14606
1.15111
1.15458
1.15973
1.16561
1.17107
1.17643
1.25762
1.26427
1.25976
1.24873
1.23339
1.21784
1.20617
1.19924
1.19298
1.18599
1.18145
1.18077
1.18681
1.19904
1.21513
1.21949
1.21046
1.2004
1.19455
1.19218
1.19564
1.2031
1.21203
1.21956
1.22395
1.22622
1.22988
1.23475
1.24003
1.24538
1.31413
1.31951
1.31592
1.30748
1.29622
1.28558
1.27896
1.2757
1.27238
1.26794
1.26565
1.26675
1.2751
1.28831
1.30443
1.30596
1.29338
1.28028
1.2724
1.26773
1.26932
1.27474
1.28161
1.28669
1.2888
1.28878
1.28988
1.29311
1.29785
1.30319
1.35699
1.36146
1.3598
1.35522
1.34954
1.34518
1.3448
1.34643
1.34751
1.34731
1.34832
1.35259
1.36393
1.3781
1.394
1.39228
1.37658
1.36108
1.35137
1.34365
1.34198
1.34345
1.34604
1.3465
1.34459
1.34082
1.33785
1.33863
1.3423
1.34746
1.38486
1.38893
1.39035
1.39112
1.39226
1.39534
1.40215
1.40978
1.41664
1.42185
1.4275
1.43588
1.45063
1.4655
1.48088
1.47568
1.45752
1.44057
1.42961
1.41867
1.41261
1.40851
1.40489
1.39869
1.39079
1.3818
1.37376
1.37047
1.37236
1.37682
1.39823
1.40233
1.40789
1.41539
1.42436
1.43562
1.44985
1.46433
1.47822
1.48952
1.50096
1.51404
1.53226
1.54751
1.56215
1.55359
1.53397
1.51663
1.50511
1.49119
1.4802
1.46929
1.45788
1.44347
1.42793
1.41243
1.39858
1.38997
1.38841
1.39171
1.3991
1.40386
1.41432
1.42914
1.44623
1.46575
1.48733
1.50918
1.5305
1.54853
1.56633
1.58431
1.60584
1.62122
1.63515
1.62369
1.60405
1.58752
1.57612
1.55964
1.54356
1.52524
1.50518
1.48151
1.4572
1.43431
1.41437
1.39974
1.39299
1.39421
1.39095
1.39711
1.41104
1.43324
1.45888
1.48595
1.51446
1.54355
1.57207
1.59711
1.62134
1.64408
1.66854
1.684
1.69763
1.68462
1.66632
1.65184
1.64104
1.62252
1.60152
1.57569
1.54683
1.51355
1.4801
1.44947
1.42336
1.40139
1.38989
1.38803
1.37696
1.38485
1.40302
1.42981
1.46186
1.49705
1.53134
1.56677
1.60183
1.63365
1.66391
1.69098
1.71792
1.73374
1.7479
1.73491
1.71991
1.70859
1.69848
1.67858
1.65293
1.61995
1.58268
1.54016
1.49809
1.46026
1.42626
1.39831
1.38183
1.37654
1.36044
1.36991
1.39198
1.42251
1.45805
1.49621
1.53712
1.57913
1.61924
1.65686
1.69235
1.72318
1.75209
1.76897
1.7849
1.77425
1.76445
1.75726
1.74806
1.72692
1.69694
1.65742
1.61235
1.5622
1.51297
1.46682
1.42596
1.39326
1.3715
1.36265
1.34377
1.35437
1.37911
1.41197
1.44941
1.48959
1.53268
1.57747
1.62328
1.66635
1.70571
1.73945
1.76988
1.78884
1.80834
1.80296
1.80009
1.79779
1.79
1.76709
1.73316
1.68783
1.63641
1.58045
1.5239
1.4709
1.42459
1.3873
1.36084
1.34834
1.32828
1.33938
1.36505
1.39856
1.43627
1.47745
1.52181
1.56823
1.61558
1.66064
1.70228
1.73827
1.77113
1.7933
1.81865
1.82191
1.82735
1.83048
1.82459
1.7996
1.76176
1.71211
1.65562
1.59469
1.5319
1.47344
1.42267
1.38129
1.35084
1.33453
1.31471
1.32559
1.35029
1.38215
1.41899
1.4598
1.50386
1.55014
1.59739