/*--------------------------------*- C++ -*----------------------------------*\
| =========                 |                                                 |
| \\      /  F ield         | OpenFOAM: The Open Source CFD Toolbox           |
|  \\    /   O peration     | Version:  v1806                                 |
|   \\  /    A nd           | Web:      www.OpenFOAM.com                      |
|    \\/     M anipulation  |                                                 |
\*---------------------------------------------------------------------------*/
FoamFile
{
    version     2.0;
    format      ascii;
    class       volScalarField;
    location    "3";
    object      p;
}
// * * * * * * * * * * * * * * * * * * * * * * * * * * * * * * * * * * * * * //

dimensions      [0 2 -2 0 0 0 0];


internalField   nonuniform List<scalar> 
768
(
-0.00726659
-0.00738893
-0.00731476
-0.00698388
-0.00643484
-0.00566855
-0.00471436
-0.00363348
-0.0025272
-0.00162439
-0.00110571
-0.00058449
-0.00687282
-0.00698281
-0.00687299
-0.00655345
-0.00604631
-0.00535169
-0.00449449
-0.00353323
-0.00254583
-0.00171849
-0.00127777
-0.000871269
-0.00651927
-0.00660251
-0.00648987
-0.00619564
-0.00573573
-0.00511196
-0.0043469
-0.00349916
-0.00262828
-0.00186439
-0.0014847
-0.00128657
-0.00619787
-0.00626474
-0.00616041
-0.00589419
-0.00548119
-0.00492613
-0.00424737
-0.0035085
-0.00275781
-0.00208048
-0.00171637
-0.00183959
7.45144e-05
0.000149674
-0.000145306
-0.000641603
-0.00130978
-0.0021218
-0.00304871
-0.00404587
-0.00502739
-0.00587534
-0.00649457
-0.00687206
-9.14591e-05
-7.16571e-06
-0.000201935
-0.000640342
-0.00126217
-0.00203114
-0.00290928
-0.00384663
-0.00476314
-0.00556135
-0.00616207
-0.00654356
-0.000320607
-0.000172523
-0.000353888
-0.000747257
-0.00131587
-0.00202615
-0.00283645
-0.00369547
-0.00452933
-0.00526053
-0.00582586
-0.00620011
-0.000543313
-0.000305557
-0.000534805
-0.000900239
-0.00142123
-0.00207036
-0.00280848
-0.00358929
-0.00434199
-0.00500404
-0.00552482
-0.0058813
-0.00713556
-0.00721653
-0.00712157
-0.00680094
-0.00626681
-0.00552837
-0.0046106
-0.00357318
-0.00251341
-0.00164553
-0.00112025
-0.000591648
-0.00674568
-0.00682285
-0.00670215
-0.00638989
-0.00589518
-0.00522401
-0.00439836
-0.00347534
-0.00252831
-0.00172905
-0.00128349
-0.000861235
-0.00639471
-0.00645426
-0.0063362
-0.0060483
-0.00559919
-0.00499557
-0.00425731
-0.00344261
-0.00260534
-0.0018614
-0.00147392
-0.00126432
-0.00607547
-0.0061263
-0.0060194
-0.00575948
-0.00535616
-0.00481888
-0.00416157
-0.0034507
-0.00272826
-0.00206706
-0.00169682
-0.00179793
-7.15893e-07
6.16315e-05
-0.000224429
-0.000711793
-0.0013677
-0.00216752
-0.00308621
-0.00408236
-0.00507225
-0.00594035
-0.00659188
-0.00698334
-0.000158789
-7.3405e-05
-0.00027666
-0.000709846
-0.00132199
-0.00208139
-0.00295368
-0.00389213
-0.00481884
-0.0056371
-0.00626197
-0.00665259
-0.000382506
-0.000247396
-0.000429755
-0.000818502
-0.00137891
-0.00208162
-0.00288791
-0.00374916
-0.00459332
-0.00534286
-0.00592827
-0.00631078
-0.000603025
-0.000384195
-0.000612726
-0.000973858
-0.00148777
-0.00213096
-0.00286646
-0.00364983
-0.00441148
-0.00508858
-0.00562639
-0.0059925
-0.00590606
-0.0059662
-0.00587437
-0.00563727
-0.00526818
-0.00477922
-0.00417521
-0.00353842
-0.00289561
-0.00235706
-0.00207849
-0.00244749
-0.0056456
-0.00570501
-0.00562675
-0.00541682
-0.00508723
-0.00465126
-0.00412774
-0.00357822
-0.00301469
-0.00257692
-0.00231488
-0.0023373
-0.00541961
-0.0054802
-0.0054149
-0.00522916
-0.0049346
-0.00454624
-0.00408713
-0.00360329
-0.00312898
-0.0027555
-0.00251168
-0.00253048
-0.00522844
-0.00529057
-0.00523659
-0.00507181
-0.00480768
-0.0044604
-0.00405397
-0.00362687
-0.00321754
-0.00288954
-0.00267467
-0.0026474
-0.00506982
-0.00513328
-0.0050889
-0.004942
-0.0047039
-0.0043913
-0.00402795
-0.00364776
-0.0032876
-0.0029958
-0.00280342
-0.00274879
-0.0049403
-0.00500486
-0.00496853
-0.00483667
-0.00462044
-0.00433661
-0.0040082
-0.00366585
-0.0033434
-0.00308
-0.00290353
-0.00283659
-0.00483632
-0.00490183
-0.00487218
-0.00475274
-0.00455453
-0.00429411
-0.00399363
-0.00368123
-0.00338771
-0.00314632
-0.00298181
-0.00290974
-0.00475467
-0.004821
-0.00479681
-0.0046874
-0.00450367
-0.00426187
-0.00398327
-0.00369409
-0.0034225
-0.00319783
-0.00304243
-0.00296868
-0.00469264
-0.00475973
-0.00473989
-0.00463835
-0.00446587
-0.0042384
-0.00397643
-0.00370467
-0.00344927
-0.00323679
-0.00308812
-0.00301428
-0.00464808
-0.00471595
-0.00469945
-0.00460381
-0.00443966
-0.00422266
-0.0039727
-0.00371335
-0.00346917
-0.00326483
-0.00312079
-0.00304744
-0.00461948
-0.00468795
-0.00467391
-0.00458238
-0.0044239
-0.00421392
-0.00397183
-0.00372043
-0.00348314
-0.00328309
-0.00314178
-0.00306889
-0.00460453
-0.00467395
-0.00466157
-0.00457252
-0.00441722
-0.00421094
-0.00397287
-0.0037255
-0.00349167
-0.00329283
-0.00315339
-0.00307966
-0.000446687
-0.000444465
-0.000712481
-0.0010589
-0.00153667
-0.00212642
-0.00279412
-0.00350526
-0.00418105
-0.00478171
-0.00526134
-0.00559749
-0.000553024
-0.000635979
-0.00088174
-0.00120764
-0.00164716
-0.00218232
-0.00279037
-0.00342646
-0.00403922
-0.00458681
-0.00503011
-0.00534706
-0.000691795
-0.000797268
-0.00103194
-0.0013393
-0.00174619
-0.00223592
-0.00278678
-0.00336196
-0.00391937
-0.00442083
-0.00483192
-0.00513109
-0.000835697
-0.000943617
-0.00116261
-0.00145215
-0.00183083
-0.00228211
-0.0027858
-0.00331094
-0.00382181
-0.00428388
-0.0046667
-0.0049495
-0.000967116
-0.00107072
-0.00127431
-0.00154691
-0.00190133
-0.00232065
-0.00278629
-0.00327091
-0.0037434
-0.0041727
-0.00453137
-0.00479961
-0.00107997
-0.00118402
-0.00136795
-0.00162504
-0.00195903
-0.00235238
-0.00278741
-0.00323949
-0.00368086
-0.00408338
-0.00442195
-0.00467773
-0.00117206
-0.0012681
-0.00144357
-0.00168806
-0.00200533
-0.00237792
-0.00278861
-0.00321488
-0.00363144
-0.0040125
-0.00433473
-0.00458018
-0.0012448
-0.00133437
-0.00150309
-0.00173742
-0.00204144
-0.00239774
-0.00278947
-0.00319565
-0.0035929
-0.00395716
-0.00426652
-0.00450373
-0.00129996
-0.00138489
-0.00154812
-0.00177426
-0.00206853
-0.00241228
-0.00278968
-0.00318078
-0.0035635
-0.00391509
-0.00421472
-0.00444572
-0.00133922
-0.00142086
-0.00157989
-0.00180011
-0.00208716
-0.00242186
-0.00278905
-0.00316946
-0.0035419
-0.00388456
-0.00417733
-0.00440404
-0.0013643
-0.00144346
-0.00159939
-0.00181606
-0.00209803
-0.00242676
-0.00278739
-0.00316103
-0.00352701
-0.00386408
-0.00415266
-0.00437697
-0.00138021
-0.00145421
-0.001608
-0.00182366
-0.00210245
-0.00242805
-0.00278534
-0.00315555
-0.00351824
-0.0038524
-0.00413856
-0.00436071
-0.0057866
-0.00583647
-0.00574353
-0.00551222
-0.00515226
-0.00467993
-0.0040908
-0.00347787
-0.00285981
-0.00233193
-0.00204866
-0.00239094
-0.00553054
-0.00558296
-0.00550432
-0.00529945
-0.00497827
-0.00455568
-0.00404647
-0.00351366
-0.00297503
-0.00254352
-0.00228111
-0.00229538
-0.00530896
-0.00536469
-0.00529928
-0.005118
-0.00483112
-0.0044541
-0.00400806
-0.00353915
-0.00308219
-0.00271477
-0.00247414
-0.00248219
-0.00512161
-0.00518023
-0.00512639
-0.00496559
-0.00470848
-0.00437111
-0.00397638
-0.00356224
-0.00316608
-0.00284448
-0.00263268
-0.00259876
-0.00496614
-0.00502697
-0.00498296
-0.00483971
-0.00460803
-0.00430426
-0.00395133
-0.0035824
-0.00323288
-0.00294723
-0.00275751
-0.00269981
-0.00483919
-0.00490172
-0.00486596
-0.00473749
-0.00452718
-0.00425132
-0.00393223
-0.00359976
-0.00328632
-0.00302869
-0.00285486
-0.00278675
-0.00473731
-0.00480119
-0.00477225
-0.00465602
-0.00446329
-0.00421015
-0.00391809
-0.0036145
-0.00332888
-0.00309292
-0.00293114
-0.00285893
-0.00465734
-0.00472234
-0.00469895
-0.0045926
-0.00441397
-0.00417889
-0.00390802
-0.00362682
-0.00336238
-0.00314285
-0.00299026
-0.00291698
-0.00459662
-0.00466259
-0.00464359
-0.00454499
-0.00437732
-0.00415612
-0.00390135
-0.00363699
-0.0033882
-0.00318066
-0.00303486
-0.00296184
-0.00455303
-0.00461991
-0.00460427
-0.00451146
-0.00435189
-0.00414085
-0.00389771
-0.00364534
-0.00340743
-0.00320789
-0.00306676
-0.00299444
-0.00452505
-0.00459263
-0.00457943
-0.00449066
-0.00433661
-0.00413237
-0.00389686
-0.00365217
-0.00342094
-0.00322567
-0.00308726
-0.00301551
-0.00451043
-0.00457897
-0.00456743
-0.00448108
-0.00433012
-0.00412947
-0.00389785
-0.00365707
-0.00342917
-0.00323522
-0.00309855
-0.00302611
-0.000523504
-0.000522285
-0.000792589
-0.00113472
-0.00160615
-0.0021913
-0.00285752
-0.00357121
-0.00425426
-0.00486709
-0.00536083
-0.00570696
-0.000636791
-0.000724492
-0.000964167
-0.00128505
-0.00171894
-0.00225032
-0.00285832
-0.00349643
-0.00411547
-0.00467285
-0.00512764
-0.00545386
-0.000777507
-0.000882373
-0.00111497
-0.00141757
-0.00181972
-0.00230656
-0.0028576
-0.0034351
-0.0039979
-0.0045074
-0.00492783
-0.00523505
-0.000922218
-0.00103701
-0.00124626
-0.00153085
-0.00190562
-0.00235468
-0.00285871
-0.00338627
-0.00390186
-0.0043707
-0.00476124
-0.0050509
-0.00105272
-0.00116106
-0.00135724
-0.00162568
-0.00197694
-0.00239472
-0.0028607
-0.00334771
-0.00382441
-0.00425952
-0.00462472
-0.0048988
-0.00116363
-0.00126376
-0.00144932
-0.00170362
-0.00203515
-0.00242748
-0.00286298
-0.00331733
-0.00376249
-0.00417007
-0.00451423
-0.00477502
-0.00125463
-0.00134798
-0.00152427
-0.00176632
-0.00208175
-0.00245374
-0.00286506
-0.00329346
-0.00371345
-0.00409897
-0.00442608
-0.00467591
-0.0013268
-0.00141484
-0.00158367
-0.00181501
-0.00211826
-0.0024741
-0.00286653
-0.00327475
-0.00367513
-0.00404339
-0.00435708
-0.00459819
-0.00138167
-0.00146568
-0.00162898
-0.00185134
-0.00214537
-0.00248897
-0.00286715
-0.0032602
-0.00364583
-0.00400109
-0.00430464
-0.00453917
-0.00142077
-0.00150183
-0.00166119
-0.00187665
-0.00216399
-0.00249876
-0.00286677
-0.00324907
-0.00362428
-0.00397034
-0.00426674
-0.00449673
-0.00144574
-0.00152444
-0.00168057
-0.00189264
-0.00217487
-0.00250379
-0.00286525
-0.00324073
-0.00360937
-0.00394968
-0.00424169
-0.00446915
-0.00146169
-0.00153512
-0.00168867
-0.00190067
-0.00217932
-0.00250514
-0.00286326
-0.00323528
-0.00360057
-0.00393789
-0.0042274
-0.00445263
)
;

boundaryField
{
    rotor
    {
        type            zeroGradient;
    }
    stator
    {
        type            zeroGradient;
    }
    AMI1
    {
        type            cyclicAMI;
        value           nonuniform 0();
    }
    AMI2
    {
        type            cyclicAMI;
        value           nonuniform List<scalar> 
48
(
-0.00741158
-0.00761236
-0.00759017
-0.00727358
-0.00670014
-0.0058859
-0.00486753
-0.00371451
-0.00254593
-0.00160413
-0.00105688
-0.000511032
0.000129482
0.000132151
-0.000186461
-0.000708148
-0.00139107
-0.00221084
-0.00314314
-0.00414873
-0.00514074
-0.00599267
-0.00660648
-0.00698158
-0.00728013
-0.00743449
-0.00738305
-0.00706993
-0.00651601
-0.00573448
-0.00475659
-0.00365043
-0.00253084
-0.00162808
-0.0010859
-0.000537453
5.01003e-05
4.48809e-05
-0.000265954
-0.000776878
-0.00144586
-0.00225204
-0.00317466
-0.00417755
-0.00517663
-0.00604831
-0.00669249
-0.00708226
)
;
    }
    front
    {
        type            empty;
    }
    back
    {
        type            empty;
    }
    procBoundary1to0
    {
        type            processor;
        value           nonuniform List<scalar> 8(-3.62411e-09 -0.000186249 -0.000406175 -0.00063148 -0.000537468 -0.000817127 -0.00123635 -0.00179274);
    }
}


// ************************************************************************* //
