/*--------------------------------*- C++ -*----------------------------------*\
| =========                 |                                                 |
| \\      /  F ield         | OpenFOAM: The Open Source CFD Toolbox           |
|  \\    /   O peration     | Version:  v1806                                 |
|   \\  /    A nd           | Web:      www.OpenFOAM.com                      |
|    \\/     M anipulation  |                                                 |
\*---------------------------------------------------------------------------*/
FoamFile
{
    version     2.0;
    format      ascii;
    class       surfaceScalarField;
    location    "3";
    object      phi;
}
// * * * * * * * * * * * * * * * * * * * * * * * * * * * * * * * * * * * * * //

dimensions      [0 3 -1 0 0 0 0];
oriented        oriented;


internalField   nonuniform List<scalar> 
1460
(
-9.92227e-07
-3.06992e-08
1.01328e-06
-1.00381e-06
-2.6624e-07
-1.04859e-06
-4.4912e-07
-1.12294e-06
-5.76219e-07
-1.20857e-06
-6.85892e-07
-1.29339e-06
-7.86733e-07
-1.37072e-06
-8.68063e-07
-1.43948e-06
-9.02775e-07
-1.50256e-06
-8.5797e-07
-1.57071e-06
-7.05636e-07
-1.65288e-06
-4.78973e-07
-3.3465e-07
-4.01234e-07
-1.06362e-08
3.81171e-07
-4.57513e-07
-2.09961e-07
-5.36228e-07
-3.70405e-07
-6.27428e-07
-4.85019e-07
-7.18918e-07
-5.94403e-07
-8.07455e-07
-6.98196e-07
-8.97187e-07
-7.78331e-07
-9.93466e-07
-8.06496e-07
-1.09719e-06
-7.54247e-07
-1.20444e-06
-5.98381e-07
-1.31245e-06
-3.70972e-07
-3.04467e-07
-7.10166e-08
1.6869e-08
4.35113e-08
-1.24805e-07
-1.56173e-07
-1.9945e-07
-2.9576e-07
-2.82041e-07
-4.02428e-07
-3.66141e-07
-5.10303e-07
-4.5235e-07
-6.11986e-07
-5.42789e-07
-6.87892e-07
-6.38521e-07
-7.10763e-07
-7.4319e-07
-6.49578e-07
-8.75343e-07
-4.66228e-07
-1.02606e-06
-2.20255e-07
-2.1504e-07
1.27424e-07
-1.4449e-07
3.39342e-08
8.5693e-08
-1.14441e-07
2.55516e-08
-2.35619e-07
-4.2513e-08
-3.34363e-07
-1.16922e-07
-4.35894e-07
-1.97606e-07
-5.31302e-07
-2.81899e-07
-6.03599e-07
-3.64968e-07
-6.27695e-07
-4.37029e-07
-5.77516e-07
-5.10169e-07
-3.93089e-07
-6.16035e-07
-1.14389e-07
-1.03394e-08
-1.61819e-06
-2.79659e-07
-1.56113e-06
2.90569e-08
-1.48744e-06
3.03335e-07
-1.42104e-06
5.82757e-07
-1.36665e-06
8.14331e-07
-1.32176e-06
9.76929e-07
-1.27708e-06
1.05303e-06
-1.22468e-06
1.03355e-06
-1.16391e-06
9.18877e-07
-1.10083e-06
7.23313e-07
-1.04337e-06
4.74451e-07
2.08176e-07
-9.96634e-07
-1.16862e-06
-4.52017e-07
-1.14389e-06
4.33059e-09
-1.08525e-06
2.44694e-07
-1.00333e-06
5.00842e-07
-9.12546e-07
7.23543e-07
-8.1469e-07
8.79073e-07
-7.12246e-07
9.5059e-07
-6.10497e-07
9.31797e-07
-5.16858e-07
8.25238e-07
-4.41285e-07
6.4774e-07
-3.92834e-07
4.26001e-07
1.93601e-07
-3.7826e-07
-8.31787e-07
-7.43184e-07
-7.87215e-07
-4.02412e-08
-7.57361e-07
2.1484e-07
-6.8131e-07
4.24792e-07
-5.90158e-07
6.3239e-07
-4.89327e-07
7.78242e-07
-3.80969e-07
8.42231e-07
-2.71494e-07
8.22322e-07
-1.71539e-07
7.25283e-07
-9.5336e-08
5.71537e-07
-5.20471e-08
3.82712e-07
1.87231e-07
-4.56772e-08
-5.43263e-07
-1.0309e-06
-5.15439e-07
-6.80649e-08
-5.04085e-07
2.03486e-07
-4.39051e-07
3.59758e-07
-3.49838e-07
5.43177e-07
-2.51894e-07
6.80299e-07
-1.52414e-07
7.42751e-07
-5.76074e-08
7.27515e-07
2.37785e-08
6.43897e-07
8.96051e-08
5.0571e-07
1.2878e-07
3.43537e-07
1.37327e-07
1.78683e-07
-9.7913e-07
-3.75284e-08
-9.92981e-07
-2.59342e-07
-1.04271e-06
-4.29012e-07
-1.11774e-06
-5.58737e-07
-1.20401e-06
-6.66356e-07
-1.28891e-06
-7.62588e-07
-1.36511e-06
-8.40012e-07
-1.43093e-06
-8.74711e-07
-1.48916e-06
-8.35898e-07
-1.55542e-06
-6.92036e-07
-1.65071e-06
-4.67967e-07
-3.36515e-07
-1.69923e-06
-3.98054e-07
-1.77346e-08
-4.55524e-07
-2.01872e-07
-5.36996e-07
-3.4754e-07
-6.28471e-07
-4.67262e-07
-7.19416e-07
-5.7541e-07
-8.06718e-07
-6.75286e-07
-8.94553e-07
-7.52177e-07
-9.87728e-07
-7.81536e-07
-1.08569e-06
-7.3794e-07
-1.18404e-06
-5.93681e-07
-1.28325e-06
-3.68754e-07
-3.0112e-07
-1.31865e-06
-7.29409e-08
9.52906e-09
-1.29716e-07
-1.45097e-07
-2.04584e-07
-2.72672e-07
-2.86323e-07
-3.85523e-07
-3.69006e-07
-4.92727e-07
-4.53204e-07
-5.91088e-07
-5.41031e-07
-6.6435e-07
-6.33883e-07
-6.88684e-07
-7.35381e-07
-6.36442e-07
-8.61953e-07
-4.6711e-07
-1.00405e-06
-2.26662e-07
-2.11611e-07
-1.09355e-06
1.18017e-07
2.8839e-08
7.55334e-08
-1.02613e-07
1.82668e-08
-2.15406e-07
-4.80062e-08
-3.1925e-07
-1.21195e-07
-4.19539e-07
-1.99855e-07
-5.12428e-07
-2.81135e-07
-5.8307e-07
-3.61336e-07
-6.08483e-07
-4.31725e-07
-5.66053e-07
-5.03214e-07
-3.9562e-07
-6.05344e-07
-1.24532e-07
-8.0527e-07
-1.16848e-08
-1.61894e-06
-2.8068e-07
-1.5689e-06
2.25308e-08
-1.50059e-06
2.93105e-07
-1.43867e-06
5.71869e-07
-1.38762e-06
8.0516e-07
-1.34545e-06
9.72255e-07
-1.30363e-06
1.05526e-06
-1.25487e-06
1.04446e-06
-1.19872e-06
9.39073e-07
-1.13861e-06
7.49337e-07
-1.07338e-06
4.93267e-07
2.15966e-07
-1.15929e-06
-4.40036e-07
-1.14357e-06
6.80342e-09
-1.09192e-06
2.41463e-07
-1.0154e-06
4.95344e-07
-9.28449e-07
7.1821e-07
-8.33137e-07
8.76943e-07
-7.32362e-07
9.54485e-07
-6.31895e-07
9.4399e-07
-5.38317e-07
8.45495e-07
-4.59024e-07
6.70043e-07
-4.02692e-07
4.36935e-07
1.94445e-07
-8.13191e-07
-7.204e-07
-7.80503e-07
-2.58842e-08
-7.58173e-07
2.19132e-07
-6.86893e-07
4.24064e-07
-5.99215e-07
6.30532e-07
-5.00457e-07
7.78186e-07
-3.92273e-07
8.463e-07
-2.80758e-07
8.32475e-07
-1.76303e-07
7.41039e-07
-9.41496e-08
5.8789e-07
-4.72291e-08
3.90014e-07
1.90727e-07
-5.24331e-07
-1.00134e-06
-5.04182e-07
-4.60333e-08
-5.00641e-07
2.15591e-07
-4.39707e-07
3.6313e-07
-3.52911e-07
5.43736e-07
-2.56563e-07
6.81838e-07
-1.56955e-07
7.46692e-07
-5.9583e-08
7.35104e-07
2.67356e-08
6.5472e-07
9.83808e-08
5.16245e-07
1.38306e-07
3.50088e-07
1.84544e-07
2.61956e-07
4.28535e-08
-2.70876e-07
2.30674e-07
-8.31586e-08
1.83257e-07
-1.88202e-07
1.26949e-07
-2.78055e-07
6.15724e-08
-3.70517e-07
-9.9903e-09
-4.5974e-07
-8.53172e-08
-5.28272e-07
-1.56362e-07
-5.5665e-07
-2.0703e-07
-5.26849e-07
-1.88426e-07
-4.11693e-07
-7.24174e-08
-2.30398e-07
-8.27568e-08
3.46971e-07
4.71686e-08
-3.51286e-07
3.24549e-07
-6.0737e-08
2.88765e-07
-1.52417e-07
2.43752e-07
-2.33042e-07
1.88405e-07
-3.15171e-07
1.24025e-07
-3.95359e-07
5.63146e-08
-4.60562e-07
-6.23059e-09
-4.94104e-07
-5.72364e-08
-4.75843e-07
-7.24847e-08
-3.96445e-07
-3.42357e-08
-2.68647e-07
-1.16992e-07
3.88789e-07
4.73225e-08
-3.88942e-07
3.7395e-07
-4.58988e-08
3.47983e-07
-1.2645e-07
3.1308e-07
-1.98139e-07
2.67591e-07
-2.69682e-07
2.1174e-07
-3.39509e-07
1.48761e-07
-3.97583e-07
8.42127e-08
-4.29556e-07
2.85691e-08
-4.20199e-07
-2.45562e-09
-3.6542e-07
-7.46614e-09
-2.63636e-07
-1.24459e-07
4.00319e-07
4.35575e-08
-3.96554e-07
3.91127e-07
-3.67066e-08
3.71938e-07
-1.07262e-07
3.44038e-07
-1.70239e-07
3.05973e-07
-2.31616e-07
2.57016e-07
-2.90552e-07
1.98775e-07
-3.39342e-07
1.35777e-07
-3.66559e-07
7.61458e-08
-3.60568e-07
3.03054e-08
-3.1958e-07
8.65592e-09
-2.41987e-07
-1.15803e-07
3.94506e-07
3.72652e-08
-3.88214e-07
3.88889e-07
-3.10897e-08
3.73456e-07
-9.18286e-08
3.49527e-07
-1.4631e-07
3.16107e-07
-1.98195e-07
2.72188e-07
-2.46633e-07
2.18696e-07
-2.8585e-07
1.5927e-07
-3.07133e-07
1.00423e-07
-3.01721e-07
5.02335e-08
-2.6939e-07
1.66799e-08
-2.08433e-07
-9.91228e-08
3.8034e-07
2.96174e-08
-3.72692e-07
3.76645e-07
-2.73944e-08
3.63357e-07
-7.85408e-08
3.41609e-07
-1.24562e-07
3.10896e-07
-1.67483e-07
2.70684e-07
-2.06421e-07
2.21595e-07
-2.36761e-07
1.66642e-07
-2.52179e-07
1.10877e-07
-2.45956e-07
6.03727e-08
-2.18886e-07
2.09219e-08
-1.68982e-07
-7.82009e-08
3.63197e-07
2.14015e-08
-3.54981e-07
3.60619e-07
-2.48162e-08
3.4862e-07
-6.65415e-08
3.28201e-07
-1.04143e-07
2.99287e-07
-1.38569e-07
2.61767e-07
-1.689e-07
2.1638e-07
-1.91375e-07
1.65544e-07
-2.01343e-07
1.13274e-07
-1.93685e-07
6.4129e-08
-1.69741e-07
2.28654e-08
-1.27719e-07
-5.53355e-08
3.45581e-07
1.31572e-08
-3.37337e-07
3.43504e-07
-2.27386e-08
3.32306e-07
-5.53439e-08
3.12708e-07
-8.45454e-08
2.8502e-07
-1.10881e-07
2.4939e-07
-1.3327e-07
2.06683e-07
-1.48668e-07
1.59027e-07
-1.53687e-07
1.09833e-07
-1.44491e-07
6.28435e-08
-1.22752e-07
2.25459e-08
-8.74211e-08
-3.27897e-08
3.26494e-07
5.2989e-09
-3.18636e-07
3.24479e-07
-2.07233e-08
3.13568e-07
-4.44329e-08
2.94413e-07
-6.53903e-08
2.67371e-07
-8.38391e-08
2.32896e-07
-9.87954e-08
1.91982e-07
-1.07754e-07
1.4672e-07
-1.08426e-07
1.00413e-07
-9.81839e-08
5.65996e-08
-7.89384e-08
1.98707e-08
-5.06922e-08
-1.2919e-08
3.02572e-07
-1.70263e-09
-2.9557e-07
3.00183e-07
-1.83351e-08
2.89011e-07
-3.326e-08
2.69856e-07
-4.62362e-08
2.43025e-07
-5.70073e-08
2.09152e-07
-6.49227e-08
1.69542e-07
-6.81441e-08
1.26567e-07
-6.54504e-08
8.38447e-08
-5.54619e-08
4.50409e-08
-4.01346e-08
1.47779e-08
-2.04293e-08
1.85884e-09
2.71871e-07
-6.1812e-09
-2.67392e-07
2.67257e-07
-1.37217e-08
2.54026e-07
-2.00286e-08
2.32928e-07
-2.51387e-08
2.04686e-07
-2.87652e-08
1.70296e-07
-3.05329e-08
1.31862e-07
-2.97098e-08
9.22993e-08
-2.58876e-08
5.57745e-08
-1.89371e-08
2.58021e-08
-1.01623e-08
6.33264e-09
-9.59831e-10
8.19144e-09
1.95652e-07
-2.01834e-07
1.81931e-07
1.61902e-07
1.36763e-07
1.07998e-07
7.74653e-08
4.77555e-08
2.18678e-08
2.93073e-09
-7.23161e-09
-8.19144e-09
-2.90755e-07
-7.40145e-07
-3.34643e-07
-2.41776e-08
-3.24005e-07
1.92848e-07
-2.70092e-07
3.05844e-07
-1.88225e-07
4.6131e-07
-9.27418e-08
5.84816e-07
2.63241e-09
6.47377e-07
9.0435e-08
6.39713e-07
1.66083e-07
5.68249e-07
2.20717e-07
4.51076e-07
2.52808e-07
3.11446e-07
1.70146e-07
2.61345e-07
-2.14954e-07
-5.25192e-07
-2.32231e-07
-6.90068e-09
-2.0586e-07
1.66478e-07
-1.59832e-07
2.59817e-07
-8.91713e-08
3.90649e-07
-1.5898e-09
4.97234e-07
9.03912e-08
5.55396e-07
1.76941e-07
5.53163e-07
2.48648e-07
4.96542e-07
3.00055e-07
3.99669e-07
3.30575e-07
2.80926e-07
1.59813e-07
3.40908e-07
-1.58667e-07
-3.66524e-07
-1.65955e-07
3.86735e-10
-1.3394e-07
1.34463e-07
-9.39656e-08
2.19842e-07
-3.28885e-08
3.29571e-07
4.47862e-08
4.1956e-07
1.30209e-07
4.69973e-07
2.1163e-07
4.71742e-07
2.8083e-07
4.27342e-07
3.32287e-07
3.48212e-07
3.64105e-07
2.49109e-07
1.45812e-07
3.78106e-07
-1.14451e-07
-2.52074e-07
-1.19625e-07
5.56134e-09
-9.15518e-08
1.0639e-07
-5.63127e-08
1.84603e-07
-2.49152e-09
2.7575e-07
6.66696e-08
3.50399e-07
1.43693e-07
3.92949e-07
2.18926e-07
3.96509e-07
2.84416e-07
3.61852e-07
3.34986e-07
2.97642e-07
3.68555e-07
2.1554e-07
1.2854e-07
3.85826e-07
-8.10265e-08
-1.71048e-07
-8.61342e-08
1.06691e-08
-6.42507e-08
8.4506e-08
-3.28233e-08
1.53175e-07
1.50379e-08
2.27889e-07
7.69511e-08
2.88485e-07
1.45871e-07
3.2403e-07
2.14508e-07
3.27872e-07
2.75662e-07
3.00698e-07
3.24423e-07
2.48881e-07
3.58358e-07
1.81604e-07
1.09237e-07
3.77662e-07
-5.66577e-08
-1.1439e-07
-6.09273e-08
1.49386e-08
-4.38244e-08
6.74032e-08
-1.56124e-08
1.24963e-07
2.71853e-08
1.85091e-07
8.22853e-08
2.33385e-07
1.44165e-07
2.6215e-07
2.06394e-07
2.65643e-07
2.62895e-07
2.44196e-07
3.09045e-07
2.02731e-07
3.42222e-07
1.48427e-07
8.92533e-08
3.62206e-07
-3.95167e-08
-7.48732e-08
-4.14378e-08
1.68596e-08
-2.74448e-08
5.34101e-08
-1.90212e-09
9.94206e-08
3.68845e-08
1.46305e-07
8.5969e-08
1.84301e-07
1.41579e-07
2.0654e-07
1.98005e-07
2.09217e-07
2.49881e-07
1.9232e-07
2.92897e-07
1.59714e-07
3.24746e-07
1.16578e-07
6.94075e-08
3.44592e-07
-2.75155e-08
-4.73578e-08
-2.70529e-08
1.6397e-08
-1.46021e-08
4.09593e-08
8.80257e-09
7.60159e-08
4.38137e-08
1.11293e-07
8.83867e-08
1.39728e-07
1.38731e-07
1.56195e-07
1.90107e-07
1.57842e-07
2.37746e-07
1.44681e-07
2.77822e-07
1.19639e-07
3.07854e-07
8.65457e-08
5.02665e-08
3.26995e-07
-1.96199e-08
-2.77379e-08
-1.70266e-08
1.38036e-08
-5.59565e-09
2.95283e-08
1.58377e-08
5.45825e-08
4.79032e-08
7.92279e-08
8.83226e-08
9.93084e-08
1.34259e-07
1.10259e-07
1.81327e-07
1.10774e-07
2.2517e-07
1.00837e-07
2.62356e-07
8.24531e-08
2.90506e-07
5.83959e-08
3.21809e-08
3.08592e-07
-1.50241e-08
-1.27139e-08
-1.17744e-08
1.05539e-08
-1.72726e-09
1.94811e-08
1.75898e-08
3.52654e-08
4.66828e-08
5.01348e-08
8.35486e-08
6.24426e-08
1.25631e-07
6.81766e-08
1.68836e-07
6.75682e-08
2.0925e-07
6.04234e-08
2.43577e-07
4.81262e-08
2.69626e-07
3.23468e-08
1.54938e-08
2.86313e-07
-1.19545e-08
-7.59441e-10
-9.03345e-09
7.63278e-09
-7.42765e-10
1.11903e-08
1.68333e-08
1.76893e-08
4.33481e-08
2.36199e-08
7.7703e-08
2.80877e-08
1.16367e-07
2.95126e-08
1.5591e-07
2.80254e-08
1.92567e-07
2.37662e-08
2.23308e-07
1.73852e-08
2.46001e-07
9.65325e-09
1.72163e-09
2.59774e-07
-7.59448e-10
6.87333e-09
1.80637e-08
3.5753e-08
5.93729e-08
8.74606e-08
1.16973e-07
1.44999e-07
1.68765e-07
1.8615e-07
1.95803e-07
1.97525e-07
2.49392e-07
4.07925e-08
2.18975e-07
-7.21967e-08
1.74944e-07
-1.71374e-07
1.20259e-07
-2.64565e-07
5.68989e-08
-3.56179e-07
-1.21335e-08
-4.43395e-07
-8.51481e-08
-5.10055e-07
-1.53136e-07
-5.40495e-07
-2.02806e-07
-5.16384e-07
-1.86341e-07
-4.12086e-07
-7.35636e-08
-2.37309e-07
-8.52485e-08
3.34234e-07
4.74659e-08
3.13135e-07
-5.10976e-08
2.80436e-07
-1.38674e-07
2.36889e-07
-2.21019e-07
1.8335e-07
-3.0264e-07
1.21096e-07
-3.81141e-07
5.60623e-08
-4.45022e-07
-4.427e-09
-4.80006e-07
-5.31714e-08
-4.67639e-07
-6.93526e-08
-3.95904e-07
-3.37092e-08
-2.72953e-07
-1.18958e-07
3.76866e-07
4.87061e-08
3.63555e-07
-3.77867e-08
3.39877e-07
-1.14996e-07
3.06367e-07
-1.87509e-07
2.625e-07
-2.58773e-07
2.08704e-07
-3.27345e-07
1.48277e-07
-3.84594e-07
8.62432e-08
-4.17972e-07
3.16418e-08
-4.13038e-07
-4.70234e-10
-3.63792e-07
-6.93172e-09
-2.66491e-07
-1.25889e-07
3.89211e-07
4.53209e-08
3.81453e-07
-3.00287e-08
3.6416e-07
-9.77031e-08
3.37638e-07
-1.60986e-07
3.01024e-07
-2.2216e-07
2.53913e-07
-2.80234e-07
1.97911e-07
-3.28592e-07
1.37019e-07
-3.5708e-07
7.84446e-08
-3.54464e-07
3.23431e-08
-3.17691e-07
9.21758e-09
-2.43366e-07
-1.16672e-07
3.84005e-07
3.89778e-08
3.79547e-07
-2.55706e-08
3.65915e-07
-8.40718e-08
3.43334e-07
-1.38404e-07
3.11248e-07
-1.90074e-07
2.68974e-07
-2.37961e-07
2.17388e-07
-2.77005e-07
1.59707e-07
-2.994e-07
1.01819e-07
-2.96576e-07
5.15638e-08
-2.67435e-07
1.69606e-08
-2.08762e-07
-9.97112e-08
3.70138e-07
3.10452e-08
3.67506e-07
-2.29386e-08
3.55809e-07
-7.23747e-08
3.35382e-07
-1.17977e-07
3.0596e-07
-1.60652e-07
2.67205e-07
-1.99206e-07
2.19809e-07
-2.29609e-07
1.66331e-07
-2.45921e-07
1.1147e-07
-2.41716e-07
6.10821e-08
-2.17047e-07
2.11296e-08
-1.6881e-07
-7.85816e-08
3.53098e-07
2.25391e-08
3.51525e-07
-2.13655e-08
3.4088e-07
-6.17299e-08
3.21829e-07
-9.89261e-08
2.94172e-07
-1.32996e-07
2.58054e-07
-1.63089e-07
2.14133e-07
-1.85688e-07
1.64626e-07
-1.96414e-07
1.13227e-07
-1.90317e-07
6.43547e-08
-1.68175e-07
2.29431e-08
-1.27398e-07
-5.56385e-08
3.35631e-07
1.39033e-08
3.34497e-07
-2.02317e-08
3.24489e-07
-5.17227e-08
3.06202e-07
-8.06389e-08
2.79741e-07
-1.06534e-07
2.45456e-07
-1.28803e-07
2.04109e-07
-1.44341e-07
1.57666e-07
-1.49971e-07
1.09334e-07
-1.41985e-07
6.27379e-08
-1.21579e-07
2.2521e-08
-8.71816e-08
-3.31176e-08
3.16794e-07
5.70075e-09
3.15649e-07
-1.90868e-08
3.05808e-07
-4.18816e-08
2.87857e-07
-6.26882e-08
2.62081e-07
-8.07583e-08
2.28875e-07
-9.55968e-08
1.8924e-07
-1.04706e-07
1.45124e-07
-1.05855e-07
9.96736e-08
-9.65345e-08
5.63214e-08
-7.82266e-08
1.97938e-08
-5.06539e-08
-1.33238e-08
2.93543e-07
-1.52915e-09
2.91862e-07
-1.74061e-08
2.81743e-07
-3.17623e-08
2.63604e-07
-4.45499e-08
2.3793e-07
-5.50834e-08
2.05305e-07
-6.29724e-08
1.66928e-07
-6.63289e-08
1.25042e-07
-6.39687e-08
8.31246e-08
-5.46174e-08
4.4776e-08
-3.9878e-08
1.47207e-08
-2.05987e-08
1.39691e-09
2.64358e-07
-6.11411e-09
2.60212e-07
-1.32601e-08
2.47848e-07
-1.93983e-08
2.27728e-07
-2.44294e-08
2.00531e-07
-2.7887e-08
1.67283e-07
-2.97239e-08
1.29936e-07
-2.89824e-08
9.13707e-08
-2.54032e-08
5.5494e-08
-1.87407e-08
2.58337e-08
-1.02177e-08
6.4168e-09
-1.18184e-09
7.8137e-09
1.91411e-07
1.78151e-07
1.58752e-07
1.34323e-07
1.06436e-07
7.67121e-08
4.77297e-08
2.23265e-08
3.58586e-09
-6.63186e-09
-7.8137e-09
-2.78679e-07
-7.22659e-07
-3.23497e-07
-1.21569e-09
-3.18333e-07
2.10427e-07
-2.67041e-07
3.11838e-07
-1.86874e-07
4.63569e-07
-9.25156e-08
5.87479e-07
2.91749e-09
6.51259e-07
9.21496e-08
6.45872e-07
1.71242e-07
5.75628e-07
2.29129e-07
4.58358e-07
2.61759e-07
3.17458e-07
1.75428e-07
-2.07921e-07
-5.14739e-07
-2.24157e-07
1.50205e-08
-1.98799e-07
1.8507e-07
-1.54229e-07
2.67268e-07
-8.46906e-08
3.9403e-07
2.00712e-09
5.00781e-07
9.36546e-08
5.59611e-07
1.81469e-07
5.58058e-07
2.54705e-07
5.02392e-07
3.08021e-07
4.05042e-07
3.39563e-07
2.85916e-07
1.63705e-07
-1.55632e-07
-3.59107e-07
-1.59737e-07
1.9126e-08
-1.26321e-07
1.51653e-07
-8.67925e-08
2.27739e-07
-2.64458e-08
3.33684e-07
5.1009e-08
4.23327e-07
1.36369e-07
4.74252e-07
2.18044e-07
4.76382e-07
2.88031e-07
4.32406e-07
3.40597e-07
3.52475e-07
3.73599e-07
2.52914e-07
1.48361e-07
-1.12907e-07
-2.46199e-07
-1.14914e-07
2.1133e-08
-8.42008e-08
1.2094e-07
-4.86782e-08
1.92216e-07
4.76625e-09
2.80239e-07
7.41326e-08
3.5396e-07
1.51223e-07
3.97161e-07
2.26783e-07
4.00822e-07
2.92892e-07
3.66297e-07
3.44073e-07
3.01294e-07
3.78378e-07
2.18609e-07
1.30185e-07
-8.00509e-08
-1.66148e-07
-8.23077e-08
2.33898e-08
-5.76517e-08
9.62839e-08
-2.54842e-08
1.60049e-07
2.25597e-08
2.32195e-07
8.44057e-08
2.92114e-07
1.53895e-07
3.27672e-07
2.22989e-07
3.31728e-07
2.84708e-07
3.04578e-07
3.33963e-07
2.52038e-07
3.68341e-07
1.84231e-07
1.10313e-07
-5.58524e-08
-1.10296e-07
-5.75376e-08
2.5075e-08
-3.79448e-08
7.66911e-08
-8.7251e-09
1.30829e-07
3.45939e-08
1.88876e-07
8.99864e-08
2.36722e-07
1.52326e-07
2.65332e-07
2.15144e-07
2.6891e-07
2.72178e-07
2.47544e-07
3.18705e-07
2.05512e-07
3.52396e-07
1.5054e-07
9.00165e-08
-3.87027e-08
-7.15934e-08
-3.82875e-08
2.46597e-08
-2.20816e-08
6.04852e-08
4.63432e-09
1.04113e-07
4.39269e-08
1.49584e-07
9.37466e-08
1.86902e-07
1.49823e-07
2.09255e-07
2.06793e-07
2.11939e-07
2.59276e-07
1.95062e-07
3.02854e-07
1.61934e-07
3.34993e-07
1.184e-07
7.00286e-08
-2.66576e-08
-4.49358e-08
-2.4034e-08
2.20361e-08
-9.61012e-09
4.60613e-08
1.50686e-08
7.94343e-08
5.10994e-08
1.13553e-07
9.59973e-08
1.42004e-07
1.46899e-07
1.58353e-07
1.98905e-07
1.59934e-07
2.47138e-07
1.46829e-07
2.87663e-07
1.21408e-07
3.18053e-07
8.80105e-08
5.07444e-08
-1.87392e-08
-2.61966e-08
-1.42098e-08
1.75068e-08
-9.14303e-10
3.27658e-08
2.16829e-08
5.68371e-08
5.43748e-08
8.0861e-08
9.56488e-08
1.0073e-07
1.42214e-07
1.11788e-07
1.89851e-07
1.12298e-07
2.34322e-07
1.02358e-07
2.71903e-07
8.38268e-08
3.00421e-07
5.94922e-08
3.25294e-08
-1.42454e-08
-1.19513e-08
-9.20728e-09
1.24687e-08
2.56783e-09
2.09907e-08
2.27906e-08
3.66143e-08
5.25587e-08
5.10928e-08
9.01753e-08
6.31136e-08
1.32817e-07
6.91453e-08
1.76632e-07
6.84829e-08
2.17601e-07
6.139e-08
2.52421e-07
4.90067e-08
2.78717e-07
3.31957e-08
1.56765e-08
-1.13648e-08
-5.8646e-10
-7.12494e-09
8.22879e-09
2.52003e-09
1.13457e-08
2.07794e-08
1.83549e-08
4.79584e-08
2.39138e-08
8.26802e-08
2.83918e-08
1.2198e-07
2.98458e-08
1.61997e-07
2.84652e-08
1.99186e-07
2.4201e-08
2.30397e-07
1.77959e-08
2.53545e-07
1.00476e-08
1.82957e-09
-5.8646e-10
7.64233e-09
1.89881e-08
3.7343e-08
6.12568e-08
8.96486e-08
1.19494e-07
1.4796e-07
1.72161e-07
1.89957e-07
2.00004e-07
)
;

boundaryField
{
    rotor
    {
        type            calculated;
        value           nonuniform 0();
    }
    stator
    {
        type            calculated;
        value           nonuniform List<scalar> 
96
(
-2.35099e-38
0
-2.48264e-35
3.00927e-36
0
1.20371e-35
-2.0881e-53
0
4.81482e-35
0
-7.83731e-35
1.87223e-53
3.62434e-35
8.42594e-35
0
4.97851e-35
0
1.50463e-35
-5.88629e-36
0
4.2788e-35
-2.9762e-36
0
7.22047e-36
2.35099e-38
-4.73504e-36
0
0
0
0
3.31019e-35
1.20371e-35
0
3.00927e-35
0
-3.74836e-35
1.87223e-53
2.42064e-35
0
7.67363e-35
-6.45534e-54
-5.11575e-35
1.13509e-35
9.40395e-36
3.00927e-36
-4.92767e-35
0
-2.35099e-38
-3.00927e-36
4.5139e-36
3.00927e-36
0
-4.5139e-36
0
-3.00927e-36
-9.0278e-36
-9.0278e-36
0
0
0
0
-4.5139e-36
0
-4.5139e-36
0
-4.5139e-36
4.5139e-36
0
0
0
0
0
0
4.5139e-36
3.00927e-36
0
-4.5139e-36
3.00927e-36
-3.00927e-36
-9.0278e-36
0
0
0
0
3.00927e-36
-4.5139e-36
-3.00927e-36
0
4.5139e-36
0
3.00927e-36
9.0278e-36
9.0278e-36
0
0
0
)
;
    }
    AMI1
    {
        type            cyclicAMI;
        value           nonuniform 0();
    }
    AMI2
    {
        type            cyclicAMI;
        value           nonuniform List<scalar> 
48
(
9.64957e-09
2.77821e-07
4.93902e-07
6.50566e-07
7.71527e-07
8.71555e-07
9.45389e-07
9.71533e-07
9.21052e-07
7.73785e-07
5.61145e-07
3.69151e-07
1.90213e-07
-8.61188e-08
-3.77022e-07
-6.49163e-07
-8.68717e-07
-1.02182e-06
-1.09771e-06
-1.08595e-06
-9.79641e-07
-7.86392e-07
-5.31915e-07
-2.54913e-07
2.00241e-08
2.73193e-07
4.78739e-07
6.33768e-07
7.52624e-07
8.47492e-07
9.16215e-07
9.40524e-07
8.94135e-07
7.58293e-07
5.63261e-07
3.85035e-07
2.00384e-07
-7.25634e-08
-3.61416e-07
-6.33792e-07
-8.56214e-07
-1.01442e-06
-1.09708e-06
-1.09321e-06
-9.95227e-07
-8.09447e-07
-5.58498e-07
-2.76067e-07
)
;
    }
    front
    {
        type            empty;
        value           nonuniform 0();
    }
    back
    {
        type            empty;
        value           nonuniform 0();
    }
    procBoundary1to0
    {
        type            processor;
        value           nonuniform List<scalar> 8(-1.68738e-06 -1.34263e-06 -1.11549e-06 -8.20736e-07 1.70764e-06 1.34097e-06 1.12295e-06 8.3098e-07);
    }
}


// ************************************************************************* //
