/*--------------------------------*- C++ -*----------------------------------*\
| =========                 |                                                 |
| \\      /  F ield         | OpenFOAM: The Open Source CFD Toolbox           |
|  \\    /   O peration     | Version:  v1806                                 |
|   \\  /    A nd           | Web:      www.OpenFOAM.com                      |
|    \\/     M anipulation  |                                                 |
\*---------------------------------------------------------------------------*/
FoamFile
{
    version     2.0;
    format      ascii;
    class       volVectorField;
    location    "3";
    object      U;
}
// * * * * * * * * * * * * * * * * * * * * * * * * * * * * * * * * * * * * * //

dimensions      [0 1 -1 0 0 0 0];


internalField   nonuniform List<vector> 
768
(
(0.000435073 0.039551 1.00804e-20)
(-0.00337514 0.0401848 -1.92998e-20)
(-0.00564099 0.0417989 -4.02654e-20)
(-0.00566213 0.0456909 0)
(-0.00425934 0.0499571 8.54182e-20)
(-0.00198137 0.0542529 1.50207e-20)
(0.00111106 0.0580157 -7.36374e-20)
(0.00543112 0.060782 0)
(0.0114763 0.0616954 -2.5883e-20)
(0.0201537 0.0607366 6.96812e-21)
(0.0313414 0.0591652 -7.01937e-21)
(0.03913 0.0553201 -1.05781e-20)
(1.51845e-05 0.0152083 4.66778e-21)
(-0.00387242 0.0173744 -1.27922e-20)
(-0.00638179 0.0206571 4.42912e-20)
(-0.00701601 0.0254567 0)
(-0.00682378 0.030201 -6.07882e-20)
(-0.00592201 0.0348267 5.63282e-20)
(-0.00399668 0.0390815 2.63387e-20)
(-0.000359885 0.0428666 4.90908e-21)
(0.00533251 0.0453722 1.52768e-20)
(0.0135862 0.0462365 0)
(0.0248436 0.0467957 0)
(0.0321952 0.044928 -2.18466e-20)
(0.000269757 0.0020716 0)
(-0.00367982 0.00392602 1.7771e-20)
(-0.00645266 0.0072401 -3.45971e-20)
(-0.00766827 0.0116164 -1.53008e-20)
(-0.00834529 0.0160064 8.88298e-20)
(-0.00833512 0.0205235 -3.74785e-20)
(-0.00720715 0.0249088 6.65789e-20)
(-0.00429924 0.02893 -1.52231e-20)
(0.000718558 0.0316232 4.05303e-21)
(0.00825628 0.0323123 2.8419e-21)
(0.019681 0.0346431 4.03017e-20)
(0.0271175 0.0386734 2.1421e-20)
(0.000345472 -0.00562298 0)
(-0.0033898 -0.00431917 -3.09292e-20)
(-0.00615276 -0.00153992 0)
(-0.00782668 0.00207238 -5.7863e-20)
(-0.00908455 0.00596211 0)
(-0.00965285 0.0102102 -2.52912e-20)
(-0.00913007 0.0144741 -8.36639e-20)
(-0.00701282 0.0183225 1.89238e-20)
(-0.00305344 0.0208004 0)
(0.00286976 0.0199826 0)
(0.0116972 0.0184255 1.46388e-20)
(0.0202898 0.0270307 -8.7385e-21)
(-0.0440242 -0.0498673 1.64647e-22)
(-0.0502009 -0.0399114 -1.14938e-23)
(-0.0546946 -0.0287837 1.13711e-23)
(-0.0578222 -0.01741 1.8937e-20)
(-0.0594833 -0.00720772 -1.92159e-20)
(-0.0597588 0.00124143 4.36232e-20)
(-0.0586442 0.00754113 2.29222e-20)
(-0.0561071 0.01148 9.03711e-21)
(-0.0523758 0.012888 0)
(-0.0480729 0.0118375 0)
(-0.0439949 0.00881422 1.74461e-20)
(-0.0407812 0.00465769 -2.77414e-20)
(-0.0301398 -0.0390911 -4.33395e-21)
(-0.0361509 -0.0293751 0)
(-0.0403327 -0.0213388 0)
(-0.0424006 -0.011468 -6.52507e-21)
(-0.0426457 -0.00218646 4.70723e-21)
(-0.0408679 0.00578935 -1.26357e-20)
(-0.0372957 0.0116912 0)
(-0.032402 0.0150008 2.73631e-20)
(-0.0268936 0.0154993 1.10359e-20)
(-0.0216481 0.0134311 -2.81163e-20)
(-0.0175465 0.00946266 1.99896e-20)
(-0.0152571 0.00460909 -1.23152e-20)
(-0.0171587 -0.0357036 4.03768e-21)
(-0.024566 -0.0206309 -3.52049e-21)
(-0.0287236 -0.0144883 -1.32942e-21)
(-0.0301811 -0.0065633 -5.16605e-21)
(-0.0299315 0.00136263 -7.6953e-21)
(-0.027679 0.00802505 0)
(-0.0236967 0.0127366 -8.12087e-21)
(-0.0184364 0.0151403 -1.92817e-20)
(-0.0126792 0.0150659 -1.03888e-20)
(-0.0074221 0.0127858 2.76782e-20)
(-0.00357926 0.00889106 -1.55289e-20)
(-0.0017236 0.00432159 8.78532e-21)
(-0.00291012 -0.0325367 -9.4166e-21)
(-0.0163292 -0.0151441 4.7478e-21)
(-0.0197237 -0.00855216 3.546e-21)
(-0.0208107 -0.00292916 2.1757e-21)
(-0.0202689 0.00376189 2.32086e-20)
(-0.0177965 0.00953977 1.18837e-20)
(-0.0138928 0.0133799 -3.92417e-20)
(-0.00907656 0.0149968 0)
(-0.0039949 0.0144257 -4.21153e-20)
(0.000565669 0.0119813 0)
(0.0038513 0.00830424 2.69683e-20)
(0.00549198 0.00414667 3.79598e-22)
(-0.0390711 0.000226783 -1.93133e-20)
(-0.0393888 -0.00331235 0)
(-0.0416342 -0.00523227 -3.67002e-20)
(-0.0453109 -0.0052511 3.71522e-20)
(-0.0496288 -0.00380117 0)
(-0.0538623 -0.00142234 2.9841e-20)
(-0.0575281 0.00174739 -2.43141e-21)
(-0.0601674 0.00603807 -7.35679e-20)
(-0.0609856 0.0119008 -1.01745e-20)
(-0.0599933 0.0202136 2.74215e-20)
(-0.0585228 0.0308987 7.1125e-21)
(-0.0559131 0.0392637 1.11006e-20)
(-0.0150893 -0.000133867 -4.07345e-21)
(-0.0170609 -0.00371096 4.51768e-21)
(-0.0207492 -0.00584916 3.64137e-20)
(-0.0253335 -0.00660463 0)
(-0.0301096 -0.00637058 7.36944e-20)
(-0.0346304 -0.00539796 4.07939e-20)
(-0.0387726 -0.00344236 1.79557e-21)
(-0.0424558 9.92991e-05 -1.51458e-20)
(-0.044928 0.00554868 4.04794e-20)
(-0.0456406 0.0134678 -3.4036e-20)
(-0.045728 0.0243483 0)
(-0.0440162 0.0313313 -2.15774e-20)
(-0.00196537 1.87911e-05 4.68699e-21)
(-0.00404458 -0.00348311 -4.20168e-21)
(-0.00748693 -0.005867 0)
(-0.0116433 -0.00724649 6.0602e-20)
(-0.0160349 -0.0079 -7.19252e-20)
(-0.0204194 -0.00783416 -5.94465e-20)
(-0.0246704 -0.00668752 6.64466e-20)
(-0.0285717 -0.00387316 6.85862e-20)
(-0.0312782 0.000890206 5.29388e-20)
(-0.0320374 0.00804889 -4.73587e-20)
(-0.0340856 0.0190866 8.33302e-21)
(-0.0378553 0.0265104 5.16019e-20)
(0.00543508 0.0002353 4.25855e-21)
(0.00389119 -0.0030703 -3.85858e-21)
(0.00121434 -0.00559968 0)
(-0.00219614 -0.00742166 -7.32362e-20)
(-0.00605089 -0.00866173 1.17185e-21)
(-0.0101727 -0.00919465 1.41369e-20)
(-0.0143077 -0.00867083 0)
(-0.0180388 -0.00664556 -1.47484e-20)
(-0.0205085 -0.00291275 -3.69615e-20)
(-0.0198498 0.00270952 -4.60919e-21)
(-0.0183065 0.011278 -3.69834e-20)
(-0.0265137 0.0199207 -7.1276e-20)
(-0.0499092 0.0438111 -1.04163e-21)
(-0.0402553 0.0501498 -4.28507e-22)
(-0.0292994 0.0548462 4.23868e-22)
(-0.0180219 0.0581804 0)
(-0.00780547 0.0600448 0)
(0.000750569 0.0605127 -5.78564e-20)
(0.00722351 0.0595898 2.66991e-21)
(0.011387 0.057252 -3.33867e-20)
(0.0130591 0.0537315 0)
(0.0122724 0.0496384 3.13736e-20)
(0.00938432 0.0457052 1.76344e-20)
(0.00509005 0.0415186 -9.50167e-21)
(-0.0385698 0.029757 0)
(-0.0293503 0.0359747 0)
(-0.0215482 0.0403443 0)
(-0.0118391 0.0426186 5.17108e-21)
(-0.00261521 0.0430615 3.46639e-21)
(0.00542747 0.0414657 1.28348e-20)
(0.0114974 0.0380476 -3.04577e-20)
(0.0150422 0.0332846 3.87379e-20)
(0.0157912 0.0278568 0)
(0.0138562 0.0225667 -2.07594e-20)
(0.00969531 0.0182006 -1.20831e-20)
(0.00467856 0.0153704 4.31474e-21)
(-0.0347034 0.0167742 0)
(-0.0201402 0.0242829 -4.7041e-21)
(-0.0144471 0.0286546 1.44254e-21)
(-0.00668864 0.0302563 2.37681e-21)
(0.00115154 0.0301546 -5.4678e-21)
(0.00782719 0.0280464 -8.57314e-21)
(0.012658 0.0241649 -2.05955e-20)
(0.01527 0.0189267 -1.94811e-20)
(0.0154155 0.013075 -1.05261e-20)
(0.0132085 0.00758172 2.80572e-20)
(0.00907053 0.00343148 1.49647e-20)
(0.00432438 0.00144586 0)
(-0.0315459 0.00279116 -2.35109e-21)
(-0.014322 0.0159844 -2.80031e-22)
(-0.00827811 0.0196489 0)
(-0.00288043 0.0207789 0)
(0.00371781 0.0203314 8.83365e-21)
(0.00948964 0.0179514 -4.66617e-22)
(0.0133856 0.0141119 4.01096e-20)
(0.0151319 0.00928135 0)
(0.0147081 0.00405888 4.27936e-20)
(0.0123161 -0.000741843 0)
(0.00850018 -0.00424662 1.30194e-20)
(0.00425914 -0.00588196 0)
(0.000481673 -0.010819 7.02944e-21)
(-0.00304485 -0.00986149 2.97208e-20)
(-0.00577225 -0.00765027 0)
(-0.0077373 -0.0047053 5.57386e-20)
(-0.00932427 -0.00128203 1.21189e-20)
(-0.0102796 0.00262485 5.62229e-20)
(-0.0102513 0.00663281 -2.14861e-20)
(-0.00890148 0.0101979 0)
(-0.00616581 0.0125246 0)
(-0.00223335 0.0120574 -1.06487e-20)
(0.000443148 0.00640366 -2.61245e-20)
(0.00348425 0.000210711 0)
(0.000524073 -0.0141181 -6.76941e-21)
(-0.00274774 -0.0133951 0)
(-0.00541062 -0.0116866 5.15786e-20)
(-0.00750289 -0.00932276 -1.22408e-20)
(-0.00924945 -0.00639903 1.22203e-20)
(-0.0104628 -0.00292577 -6.51073e-20)
(-0.0108189 0.000764391 -3.8311e-20)
(-0.0100516 0.00420755 1.79303e-20)
(-0.00810857 0.00666716 0)
(-0.00513735 0.00738252 0)
(-0.00267871 0.0053736 0)
(-0.00210643 0.00332791 0)
(0.000463813 -0.0156812 6.02932e-21)
(-0.00252577 -0.0151966 3.05679e-20)
(-0.00506674 -0.0139102 -5.60366e-20)
(-0.00716461 -0.0120332 0)
(-0.0089438 -0.00959625 0)
(-0.0102587 -0.00658777 1.8313e-19)
(-0.0108297 -0.00322991 -9.26138e-20)
(-0.0103979 0.000102753 0)
(-0.00886314 0.00275765 1.32871e-20)
(-0.00639009 0.00427291 -2.52966e-20)
(-0.00390623 0.003782 1.20127e-20)
(-0.00132023 0.00196785 0)
(0.000362669 -0.0160417 -5.84097e-21)
(-0.00233983 -0.0157658 -2.36411e-20)
(-0.00471032 -0.014784 4.52118e-20)
(-0.00672116 -0.0132527 -3.29726e-20)
(-0.00842855 -0.0111941 3.07339e-20)
(-0.00970888 -0.00858661 1.72108e-20)
(-0.0103236 -0.00557166 1.22915e-19)
(-0.0100251 -0.0024363 1.49408e-20)
(-0.00873825 0.000277157 -1.49833e-20)
(-0.00661906 0.00220127 -5.17455e-20)
(-0.0042267 0.00265312 0)
(-0.00155852 0.00181554 0)
(0.000241791 -0.0157428 0)
(-0.00217133 -0.0156076 0)
(-0.00433316 -0.0148216 -4.38893e-20)
(-0.00619209 -0.0135125 4.24971e-20)
(-0.00775616 -0.0117138 4.83692e-20)
(-0.00891452 -0.00941591 -1.76409e-19)
(-0.00947099 -0.00672419 -3.4389e-20)
(-0.00921799 -0.00385686 -7.83331e-20)
(-0.00810266 -0.00126192 0)
(-0.00625999 0.000773449 5.02435e-20)
(-0.00407988 0.00173134 4.89404e-20)
(-0.00144404 0.00145375 0)
(0.000108839 -0.0151336 0)
(-0.00202052 -0.0150824 -5.15921e-21)
(-0.00395224 -0.0144251 5.14967e-21)
(-0.00562355 -0.0132658 -9.75365e-21)
(-0.00700865 -0.0116516 -1.42768e-19)
(-0.00801083 -0.00959372 8.91234e-20)
(-0.00847226 -0.00718859 -1.71992e-20)
(-0.00822777 -0.00460793 6.03731e-20)
(-0.00724516 -0.00221672 1.32879e-20)
(-0.00563367 -0.000224984 -1.33311e-20)
(-0.0036699 0.000961584 -4.75597e-20)
(-0.00123104 0.00107656 0)
(-2.61905e-05 -0.0144232 0)
(-0.00188566 -0.0144218 -4.91641e-21)
(-0.00358678 -0.0138562 4.90911e-21)
(-0.00506223 -0.0128114 0)
(-0.00626426 -0.0113419 8.24978e-20)
(-0.00710634 -0.00947611 7.74952e-21)
(-0.0074631 -0.00731415 3.2002e-20)
(-0.00720748 -0.00499436 7.47116e-20)
(-0.00632088 -0.00281558 -5.48656e-20)
(-0.00489026 -0.000929983 0)
(-0.00312173 0.000332258 -9.76868e-20)
(-0.000960073 0.000715162 0)
(-0.00015621 -0.0137054 0)
(-0.00176378 -0.013731 -4.70778e-21)
(-0.00324407 -0.0132317 -3.26011e-20)
(-0.00452481 -0.0122777 -8.98165e-21)
(-0.00555039 -0.010926 -6.11254e-20)
(-0.00623833 -0.00921775 1.61134e-20)
(-0.00648674 -0.0072533 -7.85286e-20)
(-0.00620147 -0.00514783 -1.15736e-19)
(-0.00537493 -0.00315609 -5.44279e-20)
(-0.00408204 -0.00139498 -1.22792e-20)
(-0.00249954 -0.000144218 1.0637e-20)
(-0.000666432 0.000396525 0)
(-0.000273614 -0.012939 0)
(-0.00164258 -0.0129715 0)
(-0.00290866 -0.0125174 3.63413e-20)
(-0.00399447 -0.0116352 0)
(-0.00484241 -0.0103799 4.88141e-22)
(-0.0053761 -0.00880002 1.56529e-20)
(-0.00551132 -0.00699409 -1.56672e-20)
(-0.00517837 -0.00506434 5.65243e-20)
(-0.00438713 -0.00323796 1.20805e-20)
(-0.00321376 -0.0016167 -1.12601e-19)
(-0.00183626 -0.000445703 9.43252e-20)
(-0.000377016 0.000143546 -9.33775e-20)
(-0.000368884 -0.0119908 0)
(-0.00150283 -0.0120109 -1.74778e-20)
(-0.00255098 -0.0115832 3.48267e-20)
(-0.00343594 -0.0107546 -8.39958e-21)
(-0.00409669 -0.00957746 8.26416e-20)
(-0.00446539 -0.00810449 -5.5562e-20)
(-0.00447501 -0.00643333 5.82024e-20)
(-0.00408126 -0.00466306 -1.43277e-20)
(-0.00332088 -0.00300632 1.03366e-19)
(-0.00228295 -0.00156283 8.53863e-20)
(-0.00116048 -0.000545386 1.1975e-20)
(-0.000118681 -2.25006e-05 9.09698e-20)
(-0.000439356 -0.0108092 0)
(-0.00133285 -0.0107468 5.1003e-20)
(-0.00214004 -0.0102705 -3.39909e-20)
(-0.00279203 -0.00942196 0)
(-0.00322697 -0.00825771 7.8376e-21)
(-0.00339103 -0.00684228 3.85827e-20)
(-0.00324632 -0.00528168 5.86898e-20)
(-0.00278408 -0.00368821 2.7128e-20)
(-0.0020794 -0.00226343 -1.27264e-19)
(-0.00123887 -0.00110478 -8.37486e-20)
(-0.00046059 -0.000371941 0)
(0.000105473 -7.55484e-05 0)
(-0.000352969 -0.00796675 8.09214e-21)
(-0.000876762 -0.00753335 -4.94201e-23)
(-0.00128988 -0.00679486 0)
(-0.00154966 -0.00581541 -7.90986e-21)
(-0.00162548 -0.00467259 7.91644e-21)
(-0.00150639 -0.00344949 7.38148e-20)
(-0.00120888 -0.00225189 -2.38775e-19)
(-0.000777688 -0.0011831 0)
(-0.000309178 -0.000373769 9.86486e-20)
(9.87066e-05 0.000126541 9.30427e-20)
(0.000310441 0.000264581 8.92408e-20)
(0.000246141 9.69272e-05 -8.70417e-20)
(0.00779177 -0.019536 9.30935e-21)
(-0.0104293 -0.0101194 1.32896e-20)
(-0.0133359 -0.00428793 -1.81377e-20)
(-0.0140129 -0.000460909 0)
(-0.0133846 0.00486217 -2.82319e-20)
(-0.0108719 0.00981573 -1.1722e-20)
(-0.00701195 0.0131899 3.84676e-20)
(-0.00243429 0.0145113 2.39182e-20)
(0.00213713 0.0137879 4.98535e-20)
(0.00608802 0.0113534 0)
(0.00889609 0.00790087 -2.59427e-20)
(0.0103383 0.00407578 3.23288e-22)
(0.00433463 -0.0137701 0)
(-0.00791512 -0.00679972 -1.37702e-20)
(-0.00915165 -0.00191843 1.84881e-20)
(-0.00941401 0.000959098 0)
(-0.00876974 0.00517167 -2.26734e-20)
(-0.00643272 0.00924739 -8.89901e-21)
(-0.00279011 0.0121529 5.1702e-20)
(0.00154685 0.013317 -6.62245e-22)
(0.00583872 0.0126601 0)
(0.00948603 0.0104944 0)
(0.0120667 0.0073689 0)
(0.0134326 0.00388828 2.7212e-22)
(0.00261942 -0.00968796 0)
(-0.00594337 -0.00499837 -1.17561e-20)
(-0.00634548 -0.000861792 -2.41548e-20)
(-0.00650635 0.00155577 0)
(-0.00583052 0.0049776 2.17272e-20)
(-0.00371928 0.00829941 -2.04779e-20)
(-0.000415109 0.0107279 -6.83752e-20)
(0.00355095 0.011735 1.45294e-20)
(0.00752965 0.011211 2.65104e-20)
(0.0109535 0.00937919 0)
(0.0134345 0.00665641 2.1351e-20)
(0.0148325 0.00356345 -5.46201e-21)
(0.00160398 -0.00667215 0)
(-0.00440544 -0.00360477 1.54775e-20)
(-0.00453943 -0.000433803 4.10018e-20)
(-0.00469131 0.00166034 0)
(-0.00396284 0.00448603 9.06538e-21)
(-0.0020531 0.00720172 3.06533e-20)
(0.000907962 0.0092161 -4.87097e-20)
(0.00446693 0.0100923 -2.90733e-20)
(0.0080844 0.00969565 -7.66195e-22)
(0.0112605 0.00817685 -4.87103e-21)
(0.0136381 0.00585746 -1.84616e-20)
(0.0150707 0.00315483 2.9922e-21)
(0.000949781 -0.004492 -4.36225e-21)
(-0.00325169 -0.00248806 9.4609e-21)
(-0.0033234 -0.000221255 -1.99445e-20)
(-0.00344329 0.00156441 -6.05898e-21)
(-0.0026717 0.00389984 -4.21273e-20)
(-0.000935947 0.00611582 9.01298e-21)
(0.00170499 0.00778426 8.8338e-20)
(0.00487945 0.00854039 -1.01439e-21)
(0.00813558 0.00824721 -3.29845e-20)
(0.0110448 0.00699733 4.33391e-20)
(0.0132836 0.00503984 0)
(0.0147037 0.00270824 1.53903e-20)
(0.00053772 -0.00300773 0)
(-0.00237963 -0.00164731 5.35032e-21)
(-0.00241589 -6.10757e-05 -5.33838e-21)
(-0.00246753 0.00142242 0)
(-0.00167544 0.00333995 2.31889e-20)
(-8.75028e-05 0.0051391 3.75682e-20)
(0.00226767 0.00651359 -3.54959e-20)
(0.00508984 0.00715008 7.14126e-21)
(0.00800261 0.006927 -7.13155e-21)
(0.0106393 0.00589775 -3.40279e-20)
(0.0127123 0.00425343 0)
(0.014075 0.0022595 -4.89424e-21)
(0.000264817 -0.00200624 -3.92374e-20)
(-0.00172307 -0.00104476 -3.68914e-20)
(-0.00169516 7.88825e-05 8.54426e-22)
(-0.00166216 0.00127971 -6.36374e-21)
(-0.000861944 0.00283575 -3.28186e-20)
(0.000601447 0.00429276 -4.86784e-20)
(0.00271744 0.00541291 1.04103e-20)
(0.00522949 0.00593667 0)
(0.00782843 0.00575679 0)
(0.0102023 0.00490657 0)
(0.0120987 0.00352774 -1.50332e-20)
(0.0133768 0.00183051 -2.2398e-21)
(8.45217e-05 -0.00133292 3.31068e-20)
(-0.00123552 -0.000636449 4.63624e-20)
(-0.00112734 0.000175808 0)
(-0.00100422 0.00113102 0)
(-0.000199799 0.00237844 5.56227e-20)
(0.00116088 0.00355178 -3.93364e-20)
(0.00307886 0.00445546 4.81193e-20)
(0.00532883 0.00487904 6.24878e-20)
(0.00765316 0.00472885 -6.64197e-21)
(0.0097862 0.0040255 4.02083e-21)
(0.0115097 0.00287064 1.2803e-20)
(0.0126926 0.0014336 0)
(-4.32049e-05 -0.000883396 0)
(-0.000879271 -0.000392701 5.65624e-21)
(-0.000701007 0.000210302 -5.65356e-21)
(-0.000502777 0.000954398 -7.39925e-21)
(0.00029581 0.00193883 -3.2821e-20)
(0.00156663 0.00287316 3.5513e-20)
(0.00331616 0.00359551 -3.27532e-20)
(0.00534219 0.00393504 -9.72566e-20)
(0.0074269 0.00381135 0)
(0.00934313 0.00323244 -3.87559e-21)
(0.0109015 0.0022744 3.87503e-21)
(0.0119823 0.00107131 0)
(-0.000147263 -0.000578096 0)
(-0.000651453 -0.000284362 5.63522e-21)
(-0.000446668 0.000154173 7.12076e-22)
(-0.000206361 0.000711617 -6.06115e-20)
(0.000566799 0.00147154 7.11626e-20)
(0.0017476 0.00220721 -5.44419e-20)
(0.00334452 0.00277945 4.16602e-21)
(0.00517227 0.0030554 5.91558e-20)
(0.0070416 0.00296241 -6.24765e-21)
(0.00875685 0.0025 -2.88311e-20)
(0.0101537 0.00172467 0)
(0.0111232 0.000740834 0)
(-0.000231336 -0.000329332 0)
(-0.000501051 -0.00022915 0)
(-0.000308608 6.9559e-05 0)
(-3.33549e-05 0.000463345 5.29068e-20)
(0.000720493 0.00103937 -1.3082e-19)
(0.00183368 0.00160919 4.36383e-20)
(0.00330085 0.00206054 -5.41869e-21)
(0.0049504 0.00228384 5.41161e-21)
(0.00661186 0.00221673 0)
(0.00811516 0.00185562 5.98086e-20)
(0.0093188 0.00124056 -3.5671e-20)
(0.0101271 0.000450495 1.93482e-21)
(-8.86578e-05 -3.98292e-05 -3.90194e-20)
(-1.14699e-05 0.000105343 0)
(0.000316181 0.000354209 6.0677e-21)
(0.000768539 0.000639924 -5.76259e-20)
(0.0015512 0.00101541 5.13348e-20)
(0.00255042 0.00135477 1.71888e-20)
(0.00372764 0.00159367 -5.36922e-20)
(0.00494409 0.00166545 1.11053e-20)
(0.00607125 0.00154194 -5.8706e-21)
(0.00699025 0.00123125 -5.42303e-20)
(0.00761034 0.00077133 2.91476e-20)
(0.00788122 0.00022189 0)
(0.010433 0.000440779 3.31896e-22)
(0.00933917 -0.0027266 7.03929e-21)
(0.00729803 -0.00531021 -7.01718e-21)
(0.00452033 -0.00737566 0)
(0.00116167 -0.00894419 6.07922e-20)
(-0.00263768 -0.00987088 3.39464e-20)
(-0.00651677 -0.00984841 -9.634e-20)
(-0.00996857 -0.00859244 -4.81607e-20)
(-0.0122651 -0.00604515 0)
(-0.0119385 -0.00234778 -4.57956e-21)
(-0.0065507 0.000296241 3.64287e-20)
(-0.000346244 0.00338609 4.10493e-20)
(0.0136562 0.000515421 2.80143e-22)
(0.0128998 -0.00248689 6.49829e-21)
(0.0113456 -0.00503743 4.40339e-20)
(0.00910649 -0.00718116 -1.19861e-20)
(0.00625157 -0.00891558 -3.52172e-20)
(0.00287883 -0.0101056 1.0384e-19)
(-0.000687679 -0.0104703 5.56986e-20)
(-0.00401957 -0.00979604 0)
(-0.00644185 -0.00801747 0)
(-0.0072409 -0.0052308 3.42777e-20)
(-0.00538242 -0.00280615 1.1351e-20)
(-0.00331177 -0.00207486 4.52212e-20)
(0.0152185 0.000493274 -2.65396e-21)
(0.0147509 -0.00230539 -2.69279e-20)
(0.0135863 -0.00476004 -4.88474e-20)
(0.0118069 -0.00688016 0)
(0.00943726 -0.00865198 3.25163e-20)
(0.00652066 -0.00994939 -1.31026e-19)
(0.00327499 -0.0105355 5.28089e-20)
(4.27379e-05 -0.0101831 0)
(-0.00257845 -0.00879228 0)
(-0.00414011 -0.00645597 0)
(-0.00377105 -0.00400445 0)
(-0.00201121 -0.00136297 -4.37533e-20)
(0.0155994 0.000410897 3.76415e-22)
(0.0153544 -0.00215267 1.75012e-20)
(0.0144724 -0.00445209 5.64455e-21)
(0.0130265 -0.0064679 -1.05762e-20)
(0.0110326 -0.00817329 -2.11868e-20)
(0.00850629 -0.0094455 8.53171e-20)
(0.00558781 -0.0100782 -1.8704e-20)
(0.00253699 -0.00984747 0)
(-0.000141679 -0.0086707 5.60406e-20)
(-0.00209489 -0.00665266 -3.88813e-20)
(-0.00263264 -0.00429347 3.55271e-20)
(-0.001826 -0.00157759 4.7017e-20)
(0.0153161 0.000290372 1.34043e-20)
(0.0152162 -0.00201359 -2.66192e-21)
(0.0145172 -0.00411575 0)
(0.013285 -0.00597041 1.00284e-20)
(0.0115477 -0.0075329 5.80208e-20)
(0.00932211 -0.00868866 9.44308e-21)
(0.00671165 -0.00926417 -3.74597e-22)
(0.00391551 -0.00906716 6.09578e-20)
(0.00135397 -0.00803579 -4.1295e-20)
(-0.000698106 -0.00626892 3.62536e-20)
(-0.00170937 -0.00411662 -4.62186e-20)
(-0.00145605 -0.0014585 1.61924e-21)
(0.0147167 0.000151853 2.51995e-21)
(0.0147009 -0.00188862 -7.57599e-21)
(0.0141174 -0.00377167 5.04606e-21)
(0.0130292 -0.0054332 -9.55978e-21)
(0.0114758 -0.00681525 -7.48465e-20)
(0.00948368 -0.00781685 -7.82077e-21)
(0.00714874 -0.00829402 -4.81468e-20)
(0.004629 -0.00809546 -1.04661e-19)
(0.00227026 -0.00717828 -1.42474e-20)
(0.000272966 -0.00562474 0)
(-0.000943882 -0.00368458 0)
(-0.00107664 -0.00124137 -4.58742e-20)
(0.0140116 9.51589e-06 6.98674e-29)
(0.0140427 -0.00177818 1.43533e-20)
(0.0135409 -0.00343786 4.28858e-20)
(0.0125623 -0.00489677 0)
(0.0111522 -0.00609382 0)
(0.00934956 -0.00693723 1.63104e-20)
(0.00724945 -0.0073083 -1.63188e-20)
(0.00498349 -0.00708966 1.16233e-19)
(0.00283752 -0.0062549 6.6852e-20)
(0.000954993 -0.00487041 -2.51419e-20)
(-0.000322047 -0.00312328 -8.38073e-20)
(-0.000715191 -0.000967005 -9.39065e-20)
(0.0132998 -0.000127447 -6.76841e-21)
(0.0133537 -0.0016756 -2.55648e-20)
(0.0129106 -0.00311888 -6.90138e-20)
(0.0120176 -0.00438302 7.14641e-20)
(0.0107239 -0.00539994 6.03383e-20)
(0.0090752 -0.00608978 2.42086e-20)
(0.00716693 -0.0063527 -1.58204e-20)
(0.00511221 -0.00609785 -5.6739e-20)
(0.00315329 -0.00531322 -1.58534e-19)
(0.00140186 -0.00405769 -9.95467e-20)
(0.000146959 -0.00249488 -1.63894e-21)
(-0.000397452 -0.00067181 -1.62911e-21)
(0.0125457 -0.000251737 8.83037e-21)
(0.0126027 -0.00157186 1.77064e-20)
(0.012197 -0.00280417 3.56143e-20)
(0.0113699 -0.00387664 -1.30158e-19)
(0.0101705 -0.00471466 -6.73691e-20)
(0.00864641 -0.00525007 -8.13225e-21)
(0.00689312 -0.00539762 5.9511e-20)
(0.00501131 -0.00509064 0)
(0.00321798 -0.00433408 -6.90189e-22)
(0.00161152 -0.00319057 1.95089e-19)
(0.000442839 -0.0018304 1.04237e-19)
(-0.000145949 -0.00038263 -1.27411e-20)
(0.0116256 -0.000352735 8.4439e-21)
(0.0116661 -0.00144927 -2.15448e-20)
(0.0112776 -0.00246802 3.84177e-20)
(0.0104978 -0.0033402 6.7313e-20)
(0.00937244 -0.0039927 5.67026e-20)
(0.00795101 -0.00436338 2.28473e-20)
(0.00632869 -0.00438454 -9.56064e-22)
(0.00460402 -0.00401293 9.47785e-20)
(0.00297986 -0.00328093 2.15922e-19)
(0.00155327 -0.0022665 -1.08027e-19)
(0.000540595 -0.00115765 0)
(1.93233e-05 -0.000125362 1.79581e-19)
(0.0105045 -0.000428006 -8.23577e-21)
(0.0104568 -0.00129401 2.91101e-20)
(0.0100102 -0.00208125 -2.91522e-20)
(0.009203 -0.00272245 8.0064e-21)
(0.00808437 -0.00315149 -1.34014e-19)
(0.00671486 -0.00332026 -6.00351e-20)
(0.00519859 -0.00318695 -5.67057e-20)
(0.00364521 -0.00274439 -1.06328e-19)
(0.00224851 -0.00206126 -9.9647e-20)
(0.00110315 -0.00123698 0)
(0.000371928 -0.000465976 0)
(7.38211e-05 9.71967e-05 -8.78929e-20)
(0.00779625 -0.000346985 7.92765e-21)
(0.00737322 -0.000857275 -6.84661e-20)
(0.00665585 -0.00126339 -2.81105e-20)
(0.00570741 -0.00152045 -6.30899e-20)
(0.00459774 -0.00159689 6.106e-20)
(0.00340669 -0.0014855 1.41724e-20)
(0.0022386 -0.00119854 -1.41659e-20)
(0.00119208 -0.000780741 1.25173e-20)
(0.000395036 -0.000322779 -1.25279e-20)
(-0.000104814 8.05336e-05 0)
(-0.000250762 0.000295069 0)
(-9.33655e-05 0.000238032 -8.55293e-20)
(-0.0189943 -0.00763224 0)
(-0.00929392 0.0102625 1.20044e-20)
(-0.00384454 0.0133048 -3.16642e-21)
(-0.000283046 0.0139113 0)
(0.00493116 0.0133255 0)
(0.0098732 0.0108663 -1.20273e-20)
(0.0132669 0.00703995 -2.29301e-20)
(0.0146514 0.0024509 7.66993e-21)
(0.0139936 -0.00221721 -4.13451e-20)
(0.01158 -0.0063163 0)
(0.00808389 -0.00924654 -2.64134e-20)
(0.00422991 -0.010703 -6.74841e-21)
(-0.0134837 -0.00422887 0)
(-0.00614716 0.00793913 0)
(-0.00142071 0.00914487 1.94697e-20)
(0.00122728 0.00926339 0)
(0.0053176 0.00862261 9.23944e-21)
(0.00937215 0.00631537 -2.10947e-20)
(0.0122826 0.00268323 6.48139e-20)
(0.0134701 -0.00166479 8.78575e-21)
(0.0128326 -0.00600997 -8.77929e-21)
(0.0106617 -0.00973467 -4.24396e-20)
(0.00751685 -0.0123865 0)
(0.00400922 -0.013807 6.50602e-21)
(-0.00954335 -0.00250596 0)
(-0.00452989 0.00606134 4.57434e-21)
(-0.000386081 0.00632081 -2.92409e-20)
(0.00185937 0.00632357 5.75547e-21)
(0.0051743 0.00562879 0)
(0.00846556 0.00353068 3.04431e-20)
(0.0108906 0.000226906 -9.11862e-20)
(0.011899 -0.00375912 0)
(0.0113789 -0.00777564 0)
(0.00952297 -0.0112445 3.58514e-20)
(0.00677483 -0.0137724 -1.64699e-20)
(0.00363867 -0.0152302 -5.79946e-21)
(-0.00658826 -0.0015083 0)
(-0.00326039 0.00454318 0)
(-2.50662e-05 0.00450101 2.3041e-20)
(0.00195812 0.00450329 -7.59199e-21)
(0.00470435 0.00374016 7.57392e-21)
(0.00738475 0.00182544 -9.40811e-20)
(0.00939437 -0.00114151 1.13617e-20)
(0.0102629 -0.00472629 -3.72612e-20)
(0.00985988 -0.0083791 4.15302e-20)
(0.00830855 -0.0115884 -3.75596e-20)
(0.00595826 -0.0140007 2.11266e-20)
(0.00320587 -0.0154787 5.62323e-21)
(-0.00442936 -0.000870078 0)
(-0.00223279 0.00336256 -2.0923e-20)
(0.000114234 0.00327772 -2.23962e-20)
(0.00183599 0.00326778 0)
(0.00411587 0.00244775 2.50117e-20)
(0.00630204 0.000691312 6.10815e-20)
(0.00796214 -0.00196454 7.95006e-20)
(0.00870805 -0.00516602 -2.13746e-20)
(0.00840201 -0.00845769 -3.26973e-20)
(0.0071198 -0.0113962 3.65284e-20)
(0.00513117 -0.0136637 0)
(0.00274664 -0.0151153 0)
(-0.00295547 -0.000473203 0)
(-0.0014461 0.00245902 2.03236e-20)
(0.000211528 0.00236242 -6.59412e-21)
(0.00166242 0.00230527 6.58514e-21)
(0.00354273 0.00145582 -3.34324e-20)
(0.00532261 -0.00016132 -1.09813e-20)
(0.00668308 -0.00254031 -3.64112e-20)
(0.00730938 -0.00539155 1.16857e-19)
(0.00707179 -0.00833934 -7.29275e-21)
(0.00601293 -0.0110046 4.47199e-21)
(0.00433617 -0.0131025 -4.47569e-21)
(0.00228922 -0.0144877 0)
(-0.00196256 -0.000215414 0)
(-0.000881607 0.00177165 4.50191e-20)
(0.00030107 0.0016309 0)
(0.00148751 0.00150596 2.91043e-20)
(0.00302278 0.000645938 -2.48581e-20)
(0.0044654 -0.000852812 -5.97282e-20)
(0.00557329 -0.00299514 4.5109e-21)
(0.00608614 -0.00553932 -4.69544e-20)
(0.00589201 -0.00817286 0)
(0.00501304 -0.0105743 4.27569e-21)
(0.00360173 -0.0124933 -4.27753e-21)
(0.00185626 -0.0137895 0)
(-0.00129855 -4.97709e-05 0)
(-0.000505174 0.00125585 7.80773e-21)
(0.000357565 0.00105161 -5.93611e-21)
(0.00130851 0.000848844 2.96677e-20)
(0.00254656 -1.3106e-05 6.67839e-20)
(0.00371157 -0.00141164 2.82719e-20)
(0.00460551 -0.00335793 1.04809e-20)
(0.00501724 -0.00564075 5.80042e-20)
(0.00485249 -0.00799898 -6.79725e-21)
(0.00412126 -0.0101597 3.55603e-20)
(0.00293759 -0.0119047 -4.10617e-21)
(0.00145702 -0.0131021 0)
(-0.000858801 6.47522e-05 4.3149e-20)
(-0.000292219 0.000874486 -4.44323e-20)
(0.000356238 0.000615668 4.40248e-20)
(0.00110284 0.000349223 7.6508e-21)
(0.00208746 -0.000504158 -3.27675e-20)
(0.00301812 -0.00181207 -1.02685e-20)
(0.00373111 -0.0035885 1.02472e-20)
(0.00405917 -0.00564737 -1.96268e-22)
(0.00392096 -0.00776522 0)
(0.00331879 -0.00970821 -3.06693e-20)
(0.00233406 -0.0112871 0)
(0.00109139 -0.0123804 0)
(-0.00056388 0.000159022 -4.20382e-20)
(-0.000211184 0.00063083 5.14019e-20)
(0.000265116 0.000356664 -5.53541e-20)
(0.000832607 6.29223e-05 -5.59394e-20)
(0.00159703 -0.000758361 -8.73234e-21)
(0.00232798 -0.00197384 -3.8723e-20)
(0.0028946 -0.00359429 4.70978e-20)
(0.00316065 -0.00545197 -3.64176e-20)
(0.00305509 -0.00735288 -6.3966e-21)
(0.00257433 -0.00909332 -2.94599e-20)
(0.00177604 -0.0105094 1.58185e-20)
(0.000757188 -0.0114918 0)
(-0.00032426 0.000235494 0)
(-0.000185099 0.000476554 -4.42998e-20)
(0.000138585 0.00022999 5.58575e-20)
(0.000549328 -7.81406e-05 -1.39721e-20)
(0.00112779 -0.000868413 1.59756e-20)
(0.00169597 -0.00200847 3.77602e-20)
(0.00214354 -0.00349434 -5.71065e-20)
(0.00236098 -0.0051683 5.55389e-21)
(0.00228569 -0.00685774 0)
(0.00191088 -0.00838499 2.87591e-20)
(0.00127948 -0.00960768 -4.61762e-20)
(0.000463541 -0.0104308 0)
(-4.11422e-05 9.00175e-05 4.13228e-20)
(0.000115885 -2.11739e-07 -4.34438e-20)
(0.000376347 -0.000351605 -4.76574e-20)
(0.000672251 -0.000814021 0)
(0.00104912 -0.00161197 6.15661e-20)
(0.00139066 -0.00262563 6.12343e-20)
(0.00162877 -0.00381489 -3.09053e-20)
(0.00169981 -0.00504752 6.01747e-21)
(0.00157367 -0.00619437 -6.01265e-21)
(0.00125741 -0.00713204 0)
(0.000789497 -0.0077685 5.04537e-23)
(0.000228389 -0.00805126 -7.8252e-21)
)
;

boundaryField
{
    rotor
    {
        type            movingWallVelocity;
        value           nonuniform 0();
    }
    stator
    {
        type            movingWallVelocity;
        value           nonuniform List<vector> 
96
(
(2.55277e-18 7.7979e-17 2.0663e-36)
(0 0 0)
(-6.62843e-17 -4.01478e-16 0)
(2.76209e-16 1.1846e-15 -1.56125e-16)
(-1.73477e-16 -5.71877e-16 0)
(-3.09952e-16 -8.23524e-16 1.51309e-32)
(1.84075e-33 -8.34034e-34 1.56125e-16)
(-5.19253e-16 -9.71454e-16 0)
(1.12019e-15 1.80142e-15 0)
(0 0 0)
(-7.85664e-16 -9.57335e-16 -1.56125e-16)
(1.24633e-15 1.33069e-15 -2.21034e-32)
(-1.24633e-15 -1.16731e-15 -1.56125e-16)
(-2.18234e-15 -1.791e-15 -3.1225e-16)
(0 0 0)
(-2.19485e-16 -1.36484e-16 -1.56125e-16)
(0 0 -1.56125e-16)
(9.39049e-16 4.25477e-16 0)
(1.09402e-15 4.11762e-16 -3.1225e-16)
(5.71877e-16 1.73477e-16 0)
(3.988e-17 9.29871e-18 -1.56125e-16)
(-4.01478e-16 -6.62843e-17 -1.56125e-16)
(0 0 0)
(-7.41915e-18 -2.42878e-19 -3.1225e-16)
(-7.7979e-17 2.55277e-18 2.0663e-36)
(-2.43668e-16 2.39992e-17 1.56125e-16)
(0 0 0)
(0 0 0)
(-5.71877e-16 1.73477e-16 -1.56125e-16)
(0 0 0)
(9.39049e-16 -4.25477e-16 0)
(2.00996e-15 -1.07435e-15 -1.56125e-16)
(0 0 0)
(1.18272e-15 -8.47523e-16 -1.56125e-16)
(-1.49267e-15 1.225e-15 0)
(-8.43628e-17 7.90144e-17 -1.56125e-16)
(1.24633e-15 -1.33069e-15 2.21034e-32)
(-7.85664e-16 9.57335e-16 -1.56125e-16)
(0 0 0)
(-1.36484e-16 2.19485e-16 0)
(-5.19253e-16 9.71454e-16 -7.62111e-33)
(4.40469e-17 -9.72136e-17 3.61243e-32)
(1.01809e-16 -2.70501e-16 -1.56125e-16)
(3.70177e-17 -1.22031e-16 0)
(2.76209e-16 -1.1846e-15 -1.56125e-16)
(3.40852e-17 -2.06451e-16 0)
(0 0 0)
(2.55277e-18 -7.7979e-17 -2.0663e-36)
(-1.249e-15 1.249e-15 0)
(-6.245e-16 6.245e-16 -1.56125e-16)
(-1.249e-15 1.249e-15 0)
(0 0 -1.56125e-16)
(-6.245e-16 6.245e-16 -1.56125e-16)
(0 0 -1.56125e-16)
(-1.249e-15 1.249e-15 -1.56125e-16)
(-1.249e-15 1.249e-15 0)
(-1.249e-15 1.249e-15 -1.56125e-16)
(0 0 -1.56125e-16)
(0 0 -1.56125e-16)
(0 0 -1.56125e-16)
(0 0 0)
(6.245e-16 -6.245e-16 0)
(-6.245e-16 6.245e-16 -1.56125e-16)
(6.245e-16 -6.245e-16 0)
(0 0 -1.56125e-16)
(6.245e-16 -6.245e-16 0)
(6.245e-16 -6.245e-16 0)
(0 0 0)
(0 0 -1.56125e-16)
(0 0 -1.56125e-16)
(0 0 0)
(0 0 0)
(0 0 0)
(-6.245e-16 -6.245e-16 0)
(-1.249e-15 -1.249e-15 0)
(0 0 0)
(-6.245e-16 -6.245e-16 0)
(6.245e-16 6.245e-16 -1.56125e-16)
(-1.249e-15 -1.249e-15 0)
(-1.249e-15 -1.249e-15 0)
(0 0 0)
(0 0 -1.56125e-16)
(0 0 0)
(0 0 0)
(-1.249e-15 -1.249e-15 0)
(-6.245e-16 -6.245e-16 -1.56125e-16)