/*--------------------------------*- C++ -*----------------------------------*\
| =========                 |                                                 |
| \\      /  F ield         | OpenFOAM: The Open Source CFD Toolbox           |
|  \\    /   O peration     | Version:  v1806                                 |
|   \\  /    A nd           | Web:      www.OpenFOAM.com                      |
|    \\/     M anipulation  |                                                 |
\*---------------------------------------------------------------------------*/
FoamFile
{
    version     2.0;
    format      ascii;
    class       surfaceVectorField;
    location    "3";
    object      Uf;
}
// * * * * * * * * * * * * * * * * * * * * * * * * * * * * * * * * * * * * * //

dimensions      [0 1 -1 0 0 0 0];


internalField   nonuniform List<vector> 
1460
(
(-0.00146986 0.0398706 -4.6097e-21)
(0.000148044 0.0274634 7.39216e-21)
(0.00276256 0.0405311 2.89387e-22)
(-0.00449506 0.0410906 -2.97826e-20)
(-0.00369843 0.0288632 -1.59685e-20)
(-0.00562389 0.043884 -2.01327e-20)
(-0.00596372 0.031291 1.73086e-21)
(-0.00495892 0.0478308 4.27091e-20)
(-0.0061656 0.0356019 0)
(-0.00311837 0.0521108 5.02064e-20)
(-0.00536289 0.0400933 1.28026e-20)
(-0.000419462 0.0561722 -2.9482e-20)
(-0.00378693 0.0445475 3.46979e-20)
(0.00331923 0.0594965 -3.68187e-20)
(-0.00130147 0.0485554 -2.46893e-20)
(0.00861271 0.0615141 -1.29415e-20)
(0.0026708 0.0518222 2.43817e-21)
(0.0160466 0.0615626 -9.45744e-21)
(0.00856579 0.0535006 -5.44037e-21)
(0.0254991 0.0596272 1.70241e-21)
(0.0170538 0.0534189 3.5073e-21)
(0.0351338 0.0571264 -8.79875e-21)
(0.0282633 0.0528993 -3.5331e-21)
(0.0357295 0.0501177 -1.61748e-20)
(-0.00193391 0.0162106 -4.01933e-21)
(3.41436e-05 0.0086856 2.34886e-21)
(0.00234687 0.0152468 4.49126e-21)
(-0.00511188 0.0191314 1.5873e-20)
(-0.00390564 0.010706 2.55263e-21)
(-0.00667117 0.0231963 2.21456e-20)
(-0.00651351 0.0140075 4.85652e-21)
(-0.00691795 0.0278361 -3.03941e-20)
(-0.0073744 0.0185889 -7.60133e-21)
(-0.00636747 0.0325298 -2.23004e-21)
(-0.00758096 0.0231496 1.35478e-20)
(-0.00493832 0.0370048 4.13335e-20)
(-0.00710731 0.0277159 9.72565e-21)
(-0.002133 0.0410659 1.60575e-20)
(-0.00557531 0.0320332 4.63298e-20)
(0.0026298 0.0443679 1.13083e-20)
(-0.00229406 0.0359308 -5.09245e-21)
(0.00976344 0.0462594 7.63839e-21)
(0.00307291 0.0385215 9.7009e-21)
(0.0189573 0.0461803 0)
(0.0108922 0.0393521 1.41184e-21)
(0.0280005 0.0452701 -1.09233e-20)
(0.0222119 0.0408133 2.00216e-20)
(0.0295072 0.0419757 1.90584e-21)
(-0.00170766 0.00295868 8.88552e-21)
(0.000324737 -0.0017525 0)
(0.00229707 0.00174045 0)
(-0.00505081 0.00570023 -8.41302e-21)
(-0.00356929 -0.000167812 -6.42873e-21)
(-0.00703932 0.00953451 -2.49489e-20)
(-0.00631124 0.00287846 -1.74054e-20)
(-0.00800337 0.0138241 3.67924e-20)
(-0.00775207 0.00687503 -3.64505e-20)
(-0.00833028 0.0182942 2.56103e-20)
(-0.00872979 0.0110205 4.46892e-20)
(-0.00774017 0.0227909 1.48929e-20)
(-0.00900592 0.0154047 -3.14225e-20)
(-0.00570329 0.0270206 2.56779e-20)
(-0.00816113 0.019723 -8.07046e-21)
(-0.00168249 0.0304634 -4.6715e-21)
(-0.00561035 0.0236391 1.7449e-21)
(0.00485094 0.0325118 6.21861e-21)
(-0.0010414 0.0261741 2.03903e-21)
(0.0139385 0.0334384 2.13623e-20)
(0.00571129 0.0260912 1.42972e-21)
(0.0221156 0.0351945 3.08614e-20)
(0.0155063 0.0267546 2.4976e-20)
(0.0239421 0.0326845 6.43439e-21)
(-0.00152458 -0.00500799 -1.54646e-20)
(0.0023023 -0.00577959 0)
(0.000472525 -0.00820745 3.49379e-21)
(-0.00475829 -0.00283086 -1.54646e-20)
(-0.00320726 -0.00707492 -8.10581e-22)
(-0.00697403 0.000345132 -2.89315e-20)
(-0.0059689 -0.00457603 0)
(-0.00845338 0.00402558 -2.89315e-20)
(-0.00779669 -0.00129291 -1.33191e-21)
(-0.00935863 0.00811583 -1.26456e-20)
(-0.00922571 0.00236828 6.02338e-21)
(-0.00935489 0.0124304 -5.48823e-20)
(-0.00996862 0.00644172 1.52442e-20)
(-0.00801008 0.0165227 -3.17825e-20)
(-0.00967654 0.0105719 -5.27601e-20)
(-0.00494585 0.0197126 9.46189e-21)
(-0.0079135 0.0142641 9.51824e-21)
(0.000228869 0.0208715 0)
(-0.00450616 0.0166286 0)
(0.0077323 0.019789 7.3194e-21)
(0.000733799 0.0157567 -5.29264e-21)
(0.0140209 0.0204788 1.56206e-20)
(0.00663165 0.0120171 6.93396e-22)
(0.012249 0.0134084 -4.39527e-21)
(-0.0468937 -0.0446974 7.65765e-23)
(-0.0373139 -0.0443169 7.42351e-22)
(-0.0523891 -0.0343026 3.13035e-22)
(-0.0432843 -0.0346034 -5.78526e-24)
(-0.0561658 -0.023035 9.4742e-21)
(-0.0476223 -0.0250013 5.72348e-24)
(-0.0585594 -0.012255 3.17147e-22)
(-0.0501828 -0.0144267 6.48675e-21)
(-0.0595081 -0.00292745 1.22036e-20)
(-0.0511065 -0.00474031 -7.33413e-21)
(-0.0590682 0.00444648 3.32727e-20)
(-0.0503382 0.00341604 1.52029e-20)
(-0.0571955 0.00957174 1.55767e-20)
(-0.0479841 0.0094506 1.15375e-20)
(-0.0539974 0.0122494 4.51855e-21)
(-0.0442588 0.0129821 1.8139e-20)
(-0.049939 0.0124195 0)
(-0.0396365 0.0138278 5.48116e-21)
(-0.0457772 0.0103597 8.72307e-21)
(-0.0348724 0.0121674 -1.39644e-20)
(-0.0422664 0.00674393 -5.14764e-21)
(-0.0308083 0.00862238 1.87094e-20)
(-0.0280892 0.00417319 -1.97817e-20)
(-0.0398654 0.00244224 -2.35274e-20)
(-0.0325839 -0.0337407 -2.16698e-21)
(-0.0240197 -0.0370572 -4.96422e-21)
(-0.0382259 -0.0253448 0)
(-0.0305024 -0.024901 -1.74895e-21)
(-0.0412848 -0.0163487 -3.26254e-21)
(-0.0346807 -0.0177745 -6.60446e-22)
(-0.042431 -0.00677405 -9.08922e-22)
(-0.0364671 -0.0088109 -5.84992e-21)
(-0.0416205 0.00186863 -4.6076e-21)
(-0.0364512 -0.000195428 -1.67934e-22)
(-0.0389206 0.00880707 -6.31786e-21)
(-0.0344064 0.00710025 -6.35838e-21)
(-0.0346409 0.0134166 1.36815e-20)
(-0.0305972 0.012363 -4.03439e-21)
(-0.0293863 0.0153201 1.86263e-20)
(-0.0254912 0.0151598 4.65692e-21)
(-0.0239686 0.0145253 -8.54017e-21)
(-0.0198351 0.015297 3.9225e-22)
(-0.0193156 0.011484 -4.06333e-21)
(-0.0145674 0.0130295 -1.93606e-22)
(-0.0162091 0.0070485 3.93945e-21)
(-0.0105921 0.00902057 2.14652e-21)
(-0.00852748 0.00427487 -1.59427e-21)
(-0.0151304 0.00223761 -8.19433e-21)
(-0.0201213 -0.0275174 2.58596e-22)
(-0.0108956 -0.0332574 -2.64792e-21)
(-0.0263753 -0.0173528 -9.85995e-22)
(-0.0204358 -0.0179498 1.15054e-21)
(-0.0294174 -0.0105024 -3.24773e-21)
(-0.0243196 -0.0114434 1.09324e-21)
(-0.0299894 -0.00256169 -6.75799e-21)
(-0.025619 -0.00460611 -1.51784e-21)
(-0.0286687 0.00476121 -3.84765e-21)
(-0.0252326 0.0027467 7.66122e-21)
(-0.0255153 0.0104523 -4.06043e-21)
(-0.022862 0.0089845 5.90515e-21)
(-0.0208493 0.0140122 -1.41871e-20)
(-0.0189015 0.0132594 -2.35852e-20)
(-0.0153077 0.0151701 -1.42869e-20)
(-0.013842 0.0152557 -9.70039e-21)
(-0.00977685 0.0139803 8.64469e-21)
(-0.00839981 0.0149019 -2.61541e-20)
(-0.00527713 0.0108679 6.07467e-21)
(-0.00347832 0.0125401 1.39246e-20)
(-0.00251992 0.00661494 -3.37178e-21)
(0.00010157 0.00871629 5.58849e-21)
(0.0018597 0.00430195 4.56807e-21)
(-0.00182709 0.00217019 6.73615e-21)
(-0.00870167 -0.0230354 -2.3344e-21)
(0.00365819 -0.0274089 1.67867e-20)
(-0.0173152 -0.0113024 4.1469e-21)
(-0.0132644 -0.0128081 8.99327e-21)
(-0.0203691 -0.00580872 2.34199e-21)
(-0.0165673 -0.00640689 -7.2313e-21)
(-0.0205244 0.000425255 1.27675e-20)
(-0.0174818 -0.00162241 1.09433e-21)
(-0.0189118 0.00671046 1.75461e-20)
(-0.0169021 0.00441132 -1.28326e-21)
(-0.0156809 0.0115277 -1.29282e-20)
(-0.0144014 0.00977968 1.51128e-22)
(-0.0112783 0.0142584 -1.96209e-20)
(-0.0105052 0.0133715 -1.04314e-21)
(-0.0063414 0.0147633 -2.10577e-20)
(-0.00580008 0.0148375 1.18879e-20)
(-0.00165878 0.0132146 -2.10577e-20)
(-0.000970215 0.0142077 3.12553e-21)
(0.00227859 0.010152 1.34842e-20)
(0.00329965 0.0117343 0)
(0.00475384 0.00623084 1.3674e-20)
(0.00635297 0.00816171 8.04977e-22)
(0.00549309 0.00219099 2.31907e-21)
(0.00789907 0.00416149 3.22672e-22)
(-0.0393498 -0.00153493 -9.65665e-21)
(-0.0271627 -2.8868e-05 -1.16946e-20)
(-0.0406225 -0.00425769 -1.83501e-20)
(-0.0283065 -0.00358379 2.24377e-21)
(-0.0435644 -0.00522341 2.26032e-22)
(-0.0312503 -0.00547214 -5.6159e-22)
(-0.0474975 -0.00451872 1.85761e-20)
(-0.0353563 -0.00578395 1.87e-20)
(-0.0517459 -0.00261163 1.49205e-20)
(-0.0398883 -0.0049259 3.66014e-20)
(-0.0557309 0.000177293 1.35413e-20)
(-0.0442605 -0.00326413 3.45464e-20)
(-0.0589409 0.00393869 -3.84397e-20)
(-0.0481654 -0.000725233 -9.28557e-22)
(-0.060829 0.00911521 -4.06364e-20)
(-0.0513212 0.00318109 -4.45517e-20)
(-0.0607809 0.0162519 8.62349e-21)
(-0.0529429 0.00885448 1.43216e-20)
(-0.0589777 0.025341 1.57704e-20)
(-0.0527689 0.0169971 -1.39622e-21)
(-0.0571271 0.0350015 9.10653e-21)
(-0.0519886 0.027864 3.57997e-21)
(-0.0498861 0.0354502 -5.12944e-21)
(-0.0537485 0.0423747 5.02947e-21)
(-0.0160823 -0.00192194 2.25937e-22)
(-0.00857197 -0.000136549 3.27568e-22)
(-0.0190057 -0.0047668 2.04657e-20)
(-0.0106069 -0.00372431 1.8596e-22)
(-0.0231355 -0.00620816 1.82069e-20)
(-0.0141743 -0.00594115 1.83236e-20)
(-0.0277611 -0.006477 3.68472e-20)
(-0.0185402 -0.00695711 3.01067e-20)
(-0.0323851 -0.00587914 5.72104e-20)
(-0.0231156 -0.00712466 1.38136e-21)
(-0.03675 -0.00440009 2.12947e-20)
(-0.0275633 -0.00658921 -9.00488e-21)
(-0.0407 -0.00162924 -6.67512e-21)
(-0.0317541 -0.00502671 3.37617e-20)
(-0.0439161 0.00295339 1.37628e-20)
(-0.035539 -0.00183812 2.64517e-20)
(-0.0456938 0.00978181 3.22171e-21)
(-0.0381213 0.0032755 4.66692e-20)
(-0.0453728 0.018669 -1.7018e-20)
(-0.0389224 0.0107202 -4.06546e-20)
(-0.0442988 0.0273371 -1.07887e-20)
(-0.0400266 0.0216338 4.13979e-21)
(-0.0410937 0.0287888 1.67901e-20)
(-0.0426714 0.0319226 -1.07887e-20)
(-0.00303729 -0.00173004 2.25512e-22)
(0.00171309 0.000159767 4.45407e-21)
(-0.00584748 -0.00466429 -2.10084e-21)
(-0.000102456 -0.00329071 -4.03119e-21)
(-0.00964475 -0.00654091 3.0301e-20)
(-0.00316321 -0.00573446 0)
(-0.013883 -0.00756148 -5.6616e-21)
(-0.00695075 -0.00734144 -5.94276e-21)
(-0.0182548 -0.0078577 -6.56241e-20)
(-0.0110791 -0.00829619 -3.56024e-20)
(-0.022617 -0.007231 3.83025e-21)
(-0.015334 -0.008527 -2.2796e-20)
(-0.0267116 -0.00523566 6.75164e-20)
(-0.019519 -0.00766841 3.34285e-20)
(-0.0300854 -0.00139882 6.07625e-20)
(-0.0233186 -0.00521488 2.75667e-20)
(-0.0321647 0.00480822 2.79004e-21)
(-0.0258574 -0.00088816 9.52369e-21)
(-0.0330529 0.0135611 -1.95588e-20)
(-0.0258807 0.00553593 -2.77701e-20)
(-0.0345312 0.0215363 2.99674e-20)
(-0.0263949 0.0150234 -1.41852e-20)
(-0.0320314 0.0234368 -6.81869e-21)
(-0.0382489 0.0236119 2.58009e-20)
(0.00463802 -0.00141585 1.86662e-22)
(0.00792025 0.000370635 2.28771e-21)
(0.00247799 -0.00432515 -1.92929e-21)
(0.00659882 -0.0029009 1.55791e-21)
(-0.000547815 -0.00649935 -3.66181e-20)
(0.00423646 -0.00546559 -3.4877e-21)
(-0.00414146 -0.00803689 -3.59929e-20)
(0.0011368 -0.00742151 -3.68362e-20)
(-0.00814622 -0.00891651 7.7313e-21)
(-0.00247187 -0.00882118 3.08045e-20)
(-0.0123364 -0.00889289 7.06843e-21)
(-0.00642859 -0.00953329 2.39952e-20)
(-0.0162873 -0.00760194 -7.37418e-21)
(-0.0104318 -0.00924799 -4.78831e-20)
(-0.0194049 -0.00470338 -2.5213e-20)
(-0.0140074 -0.00757515 -3.09561e-20)
(-0.020634 0.000202341 -2.07853e-20)
(-0.0163562 -0.0043809 -1.85908e-20)
(-0.0196615 0.00744139 -2.07963e-20)
(-0.0156406 0.000582609 -8.99274e-21)
(-0.0202144 0.0136738 -5.41297e-20)
(-0.0120263 0.00635274 -6.87013e-21)
(-0.0316134 0.0139395 -3.68135e-20)
(-0.0132088 0.0120219 -1.94927e-20)
(-0.0448917 0.0467631 -7.35067e-22)
(-0.0440757 0.0370198 -5.24287e-22)
(-0.0347382 0.0524469 -2.74858e-22)
(-0.034736 0.0431943 -2.15683e-22)
(-0.0235992 0.0564214 2.11934e-22)
(-0.0253668 0.0477029 2.13348e-22)
(-0.0128622 0.0590234 0)
(-0.0149195 0.0504711 2.56829e-21)
(-0.00347533 0.0601731 -2.89282e-20)
(-0.00525561 0.0515949 1.72163e-21)
(0.00403915 0.0599254 -2.817e-20)
(0.00298498 0.0510126 -2.22438e-20)
(0.00936448 0.0582465 -1.57485e-20)
(0.00918973 0.0488317 -1.4649e-20)
(0.0122858 0.0552576 -1.66933e-20)
(0.0129534 0.0452727 2.43509e-21)
(0.0127188 0.0514181 1.56868e-20)
(0.0140639 0.0407984 0)
(0.0108683 0.0473682 2.4504e-20)
(0.0126066 0.0361182 5.48099e-21)
(0.00724438 0.0435021 4.06636e-21)
(0.00896841 0.0319885 2.87475e-21)
(0.00434986 0.0285141 -2.63954e-21)
(-0.033479 0.0323173 0)
(-0.0363054 0.0236291 0)
(-0.0254347 0.0381406 0)
(-0.0246405 0.0302766 -2.33696e-21)
(-0.0166447 0.0414082 2.58554e-21)
(-0.0178516 0.0346579 7.16645e-22)
(-0.00717805 0.042755 4.73473e-21)
(-0.00905607 0.0366166 3.78291e-21)
(0.00147036 0.0421334 8.76561e-21)
(-0.000510303 0.0367743 -9.72057e-22)
(0.00852613 0.0396029 -8.81141e-21)
(0.00682517 0.0348922 2.1995e-21)
(0.0133384 0.035464 4.14013e-21)
(0.0122304 0.0312096 -2.55582e-20)
(0.0154848 0.0303166 1.9369e-20)
(0.0152502 0.0261805 1.03085e-20)
(0.0148828 0.0249149 -1.03797e-20)
(0.0156267 0.0205185 -5.22928e-21)
(0.0118164 0.020075 -1.60916e-20)
(0.0134711 0.0151118 3.65218e-21)
(0.00719817 0.016614 -3.97515e-21)
(0.00925343 0.0108505 1.35408e-21)
(0.00429739 0.00844606 2.17121e-21)
(-0.026771 0.0197865 -2.35205e-21)
(-0.0322897 0.010617 -1.16829e-21)
(-0.017107 0.0262255 -3.32036e-22)
(-0.017281 0.0201332 -2.11076e-21)
(-0.0105481 0.0294259 2.06034e-21)
(-0.0112772 0.0242544 7.25725e-22)
(-0.00273492 0.0301472 -1.26068e-21)
(-0.00464082 0.0256436 1.19574e-21)
(0.00455362 0.0289702 -7.02047e-21)
(0.00262158 0.0253775 1.63876e-21)
(0.0103117 0.0259389 -1.38198e-20)
(0.00886371 0.0231255 -5.65241e-21)
(0.0140357 0.0213348 -2.05102e-20)
(0.0132275 0.0192477 9.56961e-21)
(0.0154086 0.0157552 -1.4465e-20)
(0.01539 0.014191 -9.8007e-21)
(0.0143677 0.0100482 8.76555e-21)
(0.0152145 0.00862989 1.59691e-20)
(0.0111708 0.00526914 2.15109e-20)
(0.0129167 0.00347067 1.41152e-20)
(0.0067044 0.00233265 7.48236e-21)
(0.00890904 -0.000371849 1.41449e-20)
(0.00439203 -0.00219214 0)
(-0.0221386 0.00848086 -6.42438e-21)
(-0.0265888 -0.00358963 -1.18255e-21)
(-0.0107847 0.0171449 -1.40016e-22)
(-0.011979 0.0130124 7.69262e-21)
(-0.00564522 0.0203126 0)
(-0.00604541 0.0165166 -1.57378e-21)
(0.000420529 0.020552 4.41683e-21)
(-0.0014986 0.0174221 0)
(0.00666133 0.0190246 4.7351e-21)
(0.00442391 0.0169044 4.44313e-21)
(0.0115034 0.0158729 1.90937e-20)
(0.0097826 0.0144763 -6.21254e-21)
(0.0143277 0.0114936 2.00548e-20)
(0.0134162 0.0106307 9.2197e-21)
(0.0149713 0.00647893 2.13968e-20)
(0.0149767 0.00591183 3.81213e-21)
(0.0135238 0.00159968 2.13968e-20)
(0.014452 0.000962619 1.44501e-21)
(0.0104217 -0.00259715 6.5097e-21)
(0.0120012 -0.00350406 0)
(0.00638369 -0.00512572 6.5097e-21)
(0.00834225 -0.00672687 -6.46584e-21)
(0.00430185 -0.00827626 -3.35411e-21)
(-0.00128658 -0.0104164 1.83751e-20)
(0.000495894 -0.0124588 1.65856e-22)
(0.00235579 -0.010835 1.40515e-22)
(-0.00440471 -0.00872667 1.48604e-20)
(-0.00290551 -0.0116173 1.49458e-20)
(-0.00674569 -0.00613208 2.78693e-20)
(-0.00561439 -0.00965323 2.5641e-20)
(-0.00852518 -0.00297276 3.39288e-20)
(-0.00764889 -0.0069942 2.19443e-20)
(-0.00978519 0.0007207 3.40607e-20)
(-0.00931884 -0.00381619 1.21693e-20)
(-0.0102457 0.00467646 1.71501e-20)
(-0.0104005 -0.000123281 -4.09343e-21)
(-0.00953187 0.0085057 -1.0743e-20)
(-0.0105399 0.00371836 -2.98502e-20)
(-0.00744257 0.011519 0)
(-0.00945117 0.00720817 8.91362e-21)
(-0.00398028 0.0126192 -5.32434e-21)
(-0.00710834 0.00959827 0)
(-0.000433145 0.00983257 -1.51728e-20)
(-0.00369273 0.00974469 -5.35496e-21)
(0.00138048 0.00264216 -1.30623e-20)
(-0.00131105 0.00605757 -1.31374e-20)
(-6.54127e-05 0.0024819 0)
(-0.001117 -0.0138354 -3.38471e-21)
(0.000473997 -0.0148947 -4.05611e-22)
(0.00226664 -0.0140514 -1.31698e-22)
(-0.00408126 -0.0125567 2.57893e-20)
(-0.00265093 -0.0142895 1.5199e-20)
(-0.00645443 -0.010493 1.96689e-20)
(-0.00525909 -0.012789 -2.01508e-21)
(-0.00837335 -0.00785038 1.27978e-23)
(-0.00736221 -0.010664 -6.15443e-21)
(-0.00984103 -0.00461798 -2.64435e-20)
(-0.00913099 -0.00797859 6.14412e-21)
(-0.0105989 -0.000979528 -5.21729e-20)
(-0.0103898 -0.00473588 5.8584e-20)
(-0.0103763 0.00260544 -9.62621e-21)
(-0.0108506 -0.00120973 -6.53115e-20)
(-0.0090399 0.00550697 8.96516e-21)
(-0.01025 0.00218058 9.01499e-21)
(-0.00655183 0.0071313 0)
(-0.00848112 0.00472163 6.60662e-21)
(-0.00377508 0.00655132 0)
(-0.00575699 0.00583403 -1.2578e-20)
(-0.00260627 0.00410708 0)
(-0.00330792 0.0045977 5.97297e-21)
(-0.0012185 0.00218616 0)
(-0.0010361 -0.015517 1.82986e-20)
(0.000414395 -0.0158605 1.26557e-22)
(0.00205124 -0.0155577 1.1493e-22)
(-0.00380064 -0.0145867 -1.26987e-20)
(-0.00243403 -0.0154796 3.60764e-21)
(-0.00611641 -0.0129754 -2.80183e-20)
(-0.00489529 -0.0143438 -5.6847e-21)
(-0.00805223 -0.0108074 0)
(-0.00695813 -0.0126364 -1.63976e-20)
(-0.00958674 -0.00804925 9.1565e-20)
(-0.00870715 -0.0103849 1.52843e-20)
(-0.0105057 -0.00481583 4.48317e-20)
(-0.0100039 -0.0075748 1.0045e-19)
(-0.0105491 -0.0014324 -4.63069e-20)
(-0.0105945 -0.00438702 1.47222e-20)
(-0.00952642 0.00161046 6.64354e-21)
(-0.0102215 -0.00115511 7.4302e-21)
(-0.00753133 0.00365788 -6.73113e-21)
(-0.00880689 0.00152772 -7.72071e-22)
(-0.00512562 0.00405683 -6.48512e-21)
(-0.00652828 0.00326009 -3.84499e-20)
(-0.00270541 0.0027698 6.00635e-21)
(-0.00407531 0.00322856 6.03866e-21)
(-0.00151945 0.00196771 0)
(-0.00099371 -0.015982 -1.47411e-20)
(0.000312186 -0.0158934 -2.9357e-21)
(0.00178427 -0.0158622 -1.0887e-22)
(-0.00353039 -0.0153153 1.07853e-20)
(-0.00224967 -0.0156878 -1.18822e-20)
(-0.00571837 -0.0140315 6.11958e-21)
(-0.00452064 -0.0148031 9.01875e-22)
(-0.00757333 -0.0122177 -1.13178e-21)
(-0.00645928 -0.0133816 4.57097e-21)
(-0.00905534 -0.00985095 2.39724e-20)
(-0.00809723 -0.0114516 3.94924e-20)
(-0.00998078 -0.00699351 6.96703e-20)
(-0.0093168 -0.00899796 -7.91208e-20)
(-0.0101124 -0.00387835 6.89278e-20)
(-0.00990047 -0.00614449 4.46643e-20)
(-0.00928433 -0.000910963 -8.45821e-22)
(-0.00962034 -0.00314465 -3.14532e-20)
(-0.00757319 0.00139705 -3.33644e-20)
(-0.00841649 -0.000491863 -7.53066e-21)
(-0.00532341 0.00255683 -2.58728e-20)
(-0.00644126 0.00149165 -1.00874e-21)
(-0.00297098 0.00214496 0)
(-0.00416862 0.0022069 2.43427e-20)
(-0.00150014 0.00163425 0)
(-0.000969704 -0.0157505 0)
(0.000185183 -0.0154401 0)
(0.00149422 -0.0155286 0)
(-0.00325833 -0.0152608 -2.19446e-20)
(-0.00209021 -0.0153469 -2.56657e-21)
(-0.00526589 -0.0141835 -6.96086e-22)
(-0.00413861 -0.0146252 -1.94937e-20)
(-0.00697224 -0.0126061 4.54331e-20)
(-0.00590511 -0.0133908 1.65037e-20)
(-0.00832274 -0.0105277 -6.41028e-20)
(-0.00738068 -0.0116839 -4.66869e-20)
(-0.00915979 -0.00799046 -1.05034e-19)
(-0.00845928 -0.0095065 -4.4361e-20)
(-0.00928698 -0.0051739 -5.69118e-20)
(-0.00896603 -0.0069589 -2.58375e-20)
(-0.00857241 -0.00240711 -3.91666e-20)
(-0.00871499 -0.00423605 -9.42284e-21)
(-0.00708362 -9.80032e-05 2.51218e-20)
(-0.00766545 -0.00174352 6.6104e-21)
(-0.00508208 0.0013669 4.9592e-20)
(-0.00594321 0.000273026 1.86168e-20)
(-0.00279061 0.00155988 2.44702e-20)
(-0.00388311 0.0013543 8.61261e-22)
(-0.00133366 0.00126197 0)
(-0.000960772 -0.0151833 -2.5796e-21)
(4.88977e-05 -0.0147804 0)
(0.00119903 -0.0149077 0)
(-0.0029927 -0.0148018 -5.60886e-23)
(-0.00194805 -0.0147542 -5.0384e-21)
(-0.00479195 -0.0138658 -2.30199e-21)
(-0.00376613 -0.0141428 5.02998e-21)
(-0.00631492 -0.0124543 -7.62511e-20)
(-0.00534015 -0.0130407 -4.90074e-21)
(-0.00749785 -0.0105876 -2.68223e-20)
(-0.00663462 -0.0114986 -3.07165e-20)
(-0.00821133 -0.00831821 3.56277e-20)
(-0.00755489 -0.00953743 4.8636e-20)
(-0.00829725 -0.00579127 2.1587e-20)
(-0.00796051 -0.00725543 7.28077e-21)
(-0.00765761 -0.00327574 3.68305e-20)
(-0.00770957 -0.00480584 6.75072e-20)
(-0.00635187 -0.00108983 -6.88921e-22)
(-0.00677486 -0.00252116 -2.06218e-20)
(-0.00457586 0.000467253 -3.04454e-20)
(-0.00525722 -0.000580463 -6.69821e-21)
(-0.00244213 0.00102859 -2.37799e-20)
(-0.00339763 0.000648846 -7.25004e-20)
(-0.00109098 0.000891838 0)
(-0.00096075 -0.0144961 -2.4582e-21)
(-8.65089e-05 -0.0140662 0)
(0.000915033 -0.0141993 0)
(-0.00274269 -0.0141881 -5.61169e-23)
(-0.0018221 -0.0140783 -4.81259e-21)
(-0.00432909 -0.0133569 2.45456e-21)
(-0.00341427 -0.0135458 -1.37567e-20)
(-0.00566251 -0.0120739 4.12489e-20)
(-0.004793 -0.0125463 -4.46943e-21)
(-0.00667437 -0.0103768 4.50516e-20)
(-0.0059069 -0.0111356 1.10283e-20)
(-0.00725672 -0.00832753 1.95659e-20)
(-0.00667052 -0.00934901 1.19116e-20)
(-0.00728721 -0.00605678 5.38171e-20)
(-0.00697095 -0.00728672 -2.2949e-20)
(-0.00669311 -0.00378188 9.92301e-21)
(-0.00669963 -0.0050746 -1.99981e-20)
(-0.00552751 -0.00175595 -2.74328e-20)
(-0.0058425 -0.00298979 -5.47145e-20)
(-0.00393864 -0.000211086 -4.88434e-20)
(-0.00448225 -0.00116555 -6.11037e-21)
(-0.00201631 0.000551752 -4.88434e-20)
(-0.00280934 9.28752e-05 -4.3836e-20)
(-0.000808006 0.000551034 0)
(-0.000964679 -0.0137897 -2.35389e-21)
(-0.000212661 -0.013324 0)
(0.000650405 -0.0134935 0)
(-0.0025101 -0.0135282 -1.87045e-20)
(-0.00170312 -0.0133531 -2.36479e-21)
(-0.00388928 -0.012779 -2.07914e-20)
(-0.00307828 -0.012876 1.71458e-21)
(-0.00503707 -0.0115999 -3.50491e-20)
(-0.00426218 -0.0119576 -4.51162e-21)
(-0.00588432 -0.0100423 -2.2506e-20)
(-0.00519924 -0.0106539 -3.04522e-20)
(-0.00633656 -0.00817282 -3.14951e-20)
(-0.00580894 -0.00900996 1.58842e-20)
(-0.0063 -0.00611113 -9.71325e-20)
(-0.00599966 -0.00712503 -4.72434e-20)
(-0.00572385 -0.00404049 -8.50821e-20)
(-0.00568918 -0.00510794 -3.00302e-20)
(-0.00465864 -0.002171 -3.33536e-20)
(-0.00487875 -0.00319968 -2.14051e-20)
(-0.00322984 -0.000690162 -3.97032e-22)
(-0.00364526 -0.00150867 -6.22077e-20)
(-0.00155196 0.00016153 5.31851e-21)
(-0.00216484 -0.000298034 5.22018e-20)
(-0.000515448 0.000264115 -4.64726e-20)
(-0.000962647 -0.0130247 0)
(-0.000320541 -0.0124671 0)
(0.000408888 -0.0127454 0)
(-0.00228171 -0.0127908 1.81706e-20)
(-0.00157449 -0.0124932 -8.69953e-21)
(-0.00345646 -0.0121009 1.81706e-20)
(-0.00273377 -0.0120519 3.55874e-20)
(-0.00441856 -0.011008 2.4407e-22)
(-0.00371984 -0.0111961 -4.18087e-21)
(-0.00510009 -0.00956296 8.07051e-21)
(-0.00447464 -0.00997945 4.14047e-20)
(-0.00541949 -0.00783857 -2.75227e-22)
(-0.00492537 -0.00845285 -1.97941e-20)
(-0.00530409 -0.00594658 2.04286e-20)
(-0.00499665 -0.00671446 2.11012e-20)
(-0.00472396 -0.00404933 3.43024e-20)
(-0.00463151 -0.00486502 2.12579e-20)
(-0.00373758 -0.00233325 -5.07393e-20)
(-0.00385315 -0.00312468 5.74638e-20)
(-0.00246946 -0.000958808 -9.13776e-21)
(-0.00274597 -0.0015931 -1.41303e-20)
(-0.00107471 -0.000114678 4.73839e-22)
(-0.00149391 -0.000500227 5.33356e-20)
(-0.000241483 5.43897e-05 -1.75238e-21)
(-0.000940206 -0.0120672 -8.7389e-21)
(-0.00040069 -0.0114027 0)
(0.000194152 -0.0118228 0)
(-0.002033 -0.0118433 8.67445e-21)
(-0.00141736 -0.0113817 1.66109e-20)
(-0.00299778 -0.0111906 1.32136e-20)
(-0.00234675 -0.0109296 5.67708e-22)
(-0.00376626 -0.0101659 3.71214e-20)
(-0.00311658 -0.010091 -4.21822e-21)
(-0.00427239 -0.0088155 1.34829e-20)
(-0.00366423 -0.00892033 4.54037e-20)
(-0.00444717 -0.0072133 1.06529e-21)
(-0.00392979 -0.00747644 -8.70178e-21)
(-0.00423987 -0.00547061 2.1571e-20)
(-0.00385939 -0.00586183 5.84748e-20)
(-0.00364666 -0.00374046 4.45189e-20)
(-0.00342878 -0.00418137 6.30922e-21)
(-0.00274501 -0.00219941 9.43759e-20)
(-0.00269363 -0.00264224 -1.14432e-20)
(-0.00167133 -0.000988453 4.90311e-20)
(-0.00175498 -0.0013407 1.18985e-21)
(-0.000610523 -0.00025081 5.14724e-20)
(-0.000805962 -0.000464057 6.01375e-21)
(-5.89388e-06 -5.0034e-05 4.56844e-20)
(-0.000890152 -0.0108398 2.55015e-20)
(-0.000404454 -0.0093938 4.02878e-21)
(1.20928e-05 -0.0106957 0)
(-0.0017423 -0.0105532 8.50607e-21)
(-0.00111689 -0.00914583 2.55488e-20)
(-0.0024705 -0.00986869 -1.69954e-20)
(-0.00172784 -0.00853826 -1.70681e-20)
(-0.00300939 -0.00883944 3.9188e-21)
(-0.00218232 -0.00762434 -3.93802e-21)
(-0.0033008 -0.00752584 2.31561e-20)
(-0.00243422 -0.00647142 7.87685e-21)
(-0.00329622 -0.00600776 4.88848e-20)
(-0.00245107 -0.00515376 5.61235e-20)
(-0.00297914 -0.00441182 4.32542e-20)
(-0.00222275 -0.00377743 -8.92727e-20)
(-0.00238123 -0.00288832 -5.04957e-20)
(-0.00176934 -0.00244947 1.3622e-20)
(-0.00160854 -0.00160838 -1.0512e-19)
(-0.00117926 -0.00133433 -1.50844e-20)
(-0.000806518 -0.000682051 -4.18743e-20)
(-0.000556684 -0.000503401 4.00372e-21)
(-0.000156468 -0.000199695 0)
(-6.94978e-05 -6.09696e-05 4.44297e-20)
(0.000180869 5.2981e-06 -4.33348e-20)
(-0.000618295 -0.00780236 4.02136e-21)
(-6.22901e-05 -0.00807335 1.33472e-22)
(-0.00108763 -0.00719684 -2.471e-23)
(-0.00142272 -0.00631996 -3.95493e-21)
(-0.0015861 -0.00523852 1.52997e-23)
(-0.00155663 -0.00403363 4.08656e-20)
(-0.00133673 -0.00280022 -8.27114e-20)
(-0.000962555 -0.00165519 -1.19387e-19)
(-0.00050786 -0.00071682 4.93243e-20)
(-8.07807e-05 -8.70145e-05 9.58457e-20)
(0.000210405 0.00020316 9.11417e-20)
(0.000283744 0.000186972 1.09954e-21)
(-0.00196695 -0.0153961 1.12995e-20)
(0.00558282 -0.0161461 4.68144e-21)
(-0.0115441 -0.00694391 -6.17022e-22)
(-0.009315 -0.00830389 1.74528e-21)
(-0.0138999 -0.00252509 -9.06887e-21)
(-0.0112771 -0.00308027 -2.56578e-22)
(-0.0137338 0.00218037 -1.4116e-20)
(-0.011751 0.000284126 0)
(-0.0120363 0.00738432 -1.9977e-20)
(-0.0111243 0.00507934 -2.54687e-20)
(-0.00880366 0.0115601 1.2739e-20)
(-0.00869281 0.00959442 -1.03186e-20)
(-0.00460416 0.013891 3.11929e-20)
(-0.00493175 0.0127238 4.50468e-20)
(-5.32167e-05 0.0141752 3.66768e-20)
(-0.000464889 0.0139496 1.18481e-20)
(0.00426691 0.0126014 2.49268e-20)
(0.00397751 0.0132263 2.50701e-20)
(0.00763495 0.00964594 -1.29713e-20)
(0.00777819 0.0109207 0)
(0.00974099 0.00599644 -1.28097e-20)
(0.0104731 0.00762796 -1.30459e-20)
(0.0118767 0.00397707 3.00919e-22)
(0.0104538 0.00225828 3.27592e-22)
(-0.00214426 -0.0105954 -6.88509e-21)
(0.00331228 -0.0115594 0)
(-0.00842676 -0.00427726 1.78977e-21)
(-0.00694992 -0.00588554 -1.27687e-20)
(-0.00949031 -0.000618296 9.24406e-21)
(-0.00776014 -0.00138777 -2.71486e-21)
(-0.00913707 0.00303929 -1.13367e-20)
(-0.00797866 0.0012725 0)
(-0.00754581 0.00723686 -1.55245e-20)
(-0.00732651 0.00510925 -9.29893e-22)
(-0.00451715 0.0107392 2.14015e-20)
(-0.00509988 0.0088121 -1.46563e-20)
(-0.000516735 0.0127705 2.55199e-20)
(-0.00162287 0.0114806 -7.66824e-21)
(0.00383672 0.0130271 -3.31123e-22)
(0.00253798 0.012548 6.97084e-21)
(0.00783122 0.0116109 0)
(0.00667805 0.0119458 1.31815e-20)
(0.0109273 0.00895154 0)
(0.0102156 0.00994029 0)
(0.0128819 0.00563726 1.3606e-22)
(0.0127475 0.00700723 1.06162e-20)
(0.0141289 0.00372054 -2.57565e-21)
(0.0136363 0.00220185 2.76131e-22)
(-0.00185404 -0.00751161 -5.87803e-21)
(0.0019815 -0.00804624 0)
(-0.00612837 -0.00291777 -1.78698e-20)
(-0.00521055 -0.00426632 1.36621e-21)
(-0.00659838 0.000231752 -1.20774e-20)
(-0.00545076 -0.000644131 8.19879e-21)
(-0.00621169 0.00324171 1.08636e-20)
(-0.00560922 0.00161663 0)
(-0.00474727 0.00665213 4.94243e-22)
(-0.00490814 0.00474518 1.54304e-20)
(-0.00201123 0.00953681 -4.417e-20)
(-0.00289792 0.00776952 4.80358e-21)
(0.00167535 0.0112679 -2.71631e-20)
(0.000237258 0.00999095 -5.85953e-20)
(0.00567962 0.0115103 2.08253e-20)
(0.00400154 0.0109343 -7.08362e-21)
(0.00939922 0.0103265 1.32552e-20)
(0.00780221 0.0104717 1.30064e-20)
(0.012348 0.00803807 1.06755e-20)
(0.0111043 0.00879239 -2.42242e-21)
(0.01426 0.00511822 7.9445e-21)
(0.0135348 0.00626881 1.57215e-21)
(0.0149508 0.00336612 -1.26378e-21)
(0.0151242 0.00202836 -4.05798e-21)
(-0.00150364 -0.00522871 7.73877e-21)
(0.00118479 -0.00548761 -2.16976e-21)
(-0.0044784 -0.00202386 2.82397e-20)
(-0.0038523 -0.00302407 1.24849e-20)
(-0.00475277 0.000521463 2.05009e-20)
(-0.00393874 -0.000322288 1.07451e-20)
(-0.00436322 0.00305231 4.53269e-21)
(-0.00407441 0.00161884 -3.01371e-21)
(-0.00299593 0.00584981 1.99162e-20)
(-0.00332198 0.00419699 -1.63976e-20)
(-0.000522354 0.00822971 -9.02818e-21)
(-0.00150053 0.00666843 1.98895e-20)
(0.00278181 0.00968622 -3.88915e-20)
(0.00130203 0.00851021 1.94027e-20)
(0.00640556 0.00992877 -1.49197e-20)
(0.00466883 0.0093312 -1.51169e-20)
(0.00981629 0.00896487 -2.81862e-21)
(0.00810693 0.00898777 -1.67392e-20)
(0.0125888 0.00703553 -1.18153e-20)
(0.011151 0.00760356 1.91084e-20)
(0.014478 0.00451424 -7.80025e-21)
(0.0134606 0.00546291 -9.27889e-21)
(0.0148878 0.00294407 9.14746e-21)
(0.015433 0.00178286 1.68431e-21)
(-0.00120703 -0.00353921 2.86522e-21)
(0.000689814 -0.00369492 -2.19214e-21)
(-0.00329748 -0.00136228 -5.29484e-21)
(-0.00282419 -0.0020621 7.41599e-21)
(-0.00349143 0.00059936 -1.35523e-20)
(-0.00287634 -0.00013543 -1.26783e-20)
(-0.00308445 0.00271656 -2.40932e-20)
(-0.00296148 0.00149956 -3.0448e-21)
(-0.00179987 0.00500978 -1.65758e-20)
(-0.00217689 0.00362282 -9.64769e-21)
(0.000442842 0.0069742 4.86755e-20)
(-0.000515305 0.0056331 2.32185e-20)
(0.00338088 0.00819243 4.34635e-20)
(0.00198226 0.00715916 2.67928e-20)
(0.00662541 0.00842539 -1.72579e-20)
(0.00498143 0.0078576 3.04283e-21)
(0.00972115 0.00764832 4.89458e-21)
(0.00806714 0.00760027 -2.01233e-20)
(0.0122943 0.00603571 2.16695e-20)
(0.0108411 0.00646234 4.89879e-21)
(0.0141107 0.0038817 7.69516e-21)
(0.0129982 0.00466037 0)
(0.0143906 0.0024956 5.30448e-21)
(0.0151065 0.0014993 1.43973e-20)
(-0.00095047 -0.00235341 2.67516e-21)
(0.000367914 -0.00247311 -1.95225e-20)
(-0.00240952 -0.000863215 -5.67961e-23)
(-0.00205792 -0.00134146 -1.5667e-20)
(-0.00252563 0.000624598 -2.66919e-21)
(-0.00206109 1.38529e-05 -2.25716e-21)
(-0.00208978 0.00237062 1.15944e-20)
(-0.00207083 0.00135786 -3.16627e-21)
(-0.000878882 0.0042408 3.03663e-20)
(-0.00127272 0.00309289 -4.67754e-21)
(0.00114058 0.00584726 8.04679e-22)
(0.000253723 0.00472145 -5.31488e-21)
(0.00376117 0.00685981 -1.41773e-20)
(0.00248896 0.00597257 -1.26553e-20)
(0.00665332 0.00706723 2.39637e-22)
(0.0051567 0.00655499 3.58814e-21)
(0.00944155 0.00643636 -2.05797e-20)
(0.00791396 0.00635328 -3.58326e-21)
(0.0117981 0.0050917 -1.7014e-20)
(0.0104202 0.0054145 -1.70974e-20)
(0.0135043 0.00326372 -2.44712e-21)
(0.0124059 0.00390326 -7.47975e-21)
(0.0137273 0.00205487 -3.57353e-21)
(0.0144882 0.00120568 -1.18714e-21)
(-0.000749162 -0.00154307 -3.80644e-20)
(0.000153364 -0.00164798 -3.70794e-21)
(-0.00171513 -0.000487555 -1.80506e-20)
(-0.00148414 -0.000837088 4.45134e-21)
(-0.00174471 0.000635168 -3.09107e-21)
(-0.00141648 0.000132524 4.29248e-22)
(-0.00127243 0.00205174 -1.95912e-20)
(-0.00133877 0.00121218 -3.19703e-21)
(-0.000116106 0.00357123 -4.07485e-20)
(-0.000534315 0.00261167 1.11621e-20)