/*--------------------------------*- C++ -*----------------------------------*\
| =========                 |                                                 |
| \\      /  F ield         | OpenFOAM: The Open Source CFD Toolbox           |
|  \\    /   O peration     | Version:  v1806                                 |
|   \\  /    A nd           | Web:      www.OpenFOAM.com                      |
|    \\/     M anipulation  |                                                 |
\*---------------------------------------------------------------------------*/
FoamFile
{
    version     2.0;
    format      ascii;
    class       surfaceScalarField;
    location    "150/porous";
    object      phi;
}
// * * * * * * * * * * * * * * * * * * * * * * * * * * * * * * * * * * * * * //

dimensions      [1 0 -1 0 0 0 0];
oriented        oriented;


internalField   nonuniform List<scalar> 
104700
(
7.63469e-05
2.58379e-06
8.7736e-05
4.58797e-05
1.53402e-06
2.89331e-05
3.349e-05
1.32405e-06
1.10657e-05
2.82039e-05
1.09914e-06
4.18699e-06
2.50883e-05
9.25609e-07
2.19001e-06
2.2921e-05
7.95632e-07
1.37166e-06
2.12658e-05
6.96073e-07
9.59125e-07
1.99381e-05
6.17653e-07
7.09984e-07
1.88403e-05
5.53844e-07
5.44005e-07
1.79119e-05
5.00623e-07
4.27721e-07
1.71135e-05
4.55388e-07
3.43021e-07
1.64177e-05
4.16414e-07
2.79378e-07
1.5805e-05
3.82483e-07
2.30203e-07
1.52612e-05
3.52639e-07
1.91199e-07
1.47756e-05
3.26006e-07
1.59571e-07
1.43404e-05
3.01678e-07
1.33589e-07
1.39494e-05
2.78678e-07
1.12311e-07
1.3598e-05
2.56007e-07
9.53505e-08
1.32826e-05
2.32759e-07
8.26344e-08
1.30002e-05
2.08273e-07
7.41462e-08
1.27482e-05
1.82265e-07
6.96936e-08
1.25246e-05
1.54909e-07
6.87611e-08
1.23273e-05
1.26821e-07
7.04575e-08
1.21547e-05
9.89483e-08
7.36029e-08
1.20054e-05
7.2409e-08
7.68942e-08
1.1878e-05
4.82954e-08
7.91161e-08
1.17712e-05
2.74817e-08
7.93277e-08
1.16838e-05
1.05037e-08
7.68732e-08
1.16146e-05
-2.5181e-09
7.17653e-08
1.15613e-05
-1.1613e-08
6.48751e-08
1.15214e-05
-1.6976e-08
5.69111e-08
1.14924e-05
-1.91382e-08
4.81743e-08
1.1472e-05
-1.88481e-08
3.91828e-08
1.14584e-05
-1.69329e-08
3.05672e-08
1.14498e-05
-1.40599e-08
2.27074e-08
1.14446e-05
-1.06059e-08
1.57761e-08
1.14417e-05
-7.2867e-09
1.01202e-08
1.14403e-05
-3.66891e-09
5.15435e-09
1.14396e-05
-1.4677e-09
2.13794e-09
-1.8838e-09
-7.81021e-09
7.78123e-05
1.68802e-06
8.97501e-05
4.84263e-05
1.30123e-06
2.96188e-05
3.67847e-05
1.23873e-06
1.17269e-05
3.20158e-05
1.08311e-06
4.78499e-06
2.9323e-05
9.49911e-07
2.66843e-06
2.74967e-05
8.41343e-07
1.78063e-06
2.61195e-05
7.50978e-07
1.32233e-06
2.50214e-05
6.75252e-07
1.04044e-06
2.41155e-05
6.10673e-07
8.49132e-07
2.33491e-05
5.54818e-07
7.12177e-07
2.26885e-05
5.05937e-07
6.09987e-07
2.21111e-05
4.62722e-07
5.31129e-07
2.1601e-05
4.24089e-07
4.68458e-07
2.11474e-05
3.88989e-07
4.17319e-07
2.07424e-05
3.56261e-07
3.74685e-07
2.03809e-05
3.24548e-07
3.38677e-07
2.0059e-05
2.92321e-07
3.08272e-07
1.97739e-05
2.58019e-07
2.83074e-07
1.95233e-05
2.20286e-07
2.63041e-07
1.93051e-05
1.78266e-07
2.48222e-07
1.9117e-05
1.31855e-07
2.38466e-07
1.89569e-05
8.18486e-08
2.33207e-07
1.88225e-05
2.99191e-08
2.31266e-07
1.8712e-05
-2.159e-08
2.31088e-07
1.8623e-05
-6.99191e-08
2.31309e-07
1.85529e-05
-1.12203e-07
2.30589e-07
1.8499e-05
-1.46009e-07
2.27437e-07
1.84585e-05
-1.69802e-07
2.20806e-07
1.84289e-05
-1.83032e-07
2.10052e-07
1.84087e-05
-1.86151e-07
1.94811e-07
1.83964e-05
-1.80517e-07
1.75774e-07
1.83909e-05
-1.68026e-07
1.54438e-07
1.83906e-05
-1.50761e-07
1.32221e-07
1.83941e-05
-1.30746e-07
1.10325e-07
1.84e-05
-1.09778e-07
8.97915e-08
1.84071e-05
-8.88769e-08
7.11585e-08
1.84145e-05
-6.9422e-08
5.47314e-08
1.84206e-05
-4.98253e-08
4.0016e-08
1.84255e-05
-3.64342e-08
3.00613e-08
-6.14511e-09
-9.89547e-09
7.76222e-05
1.2299e-06
8.95025e-05
4.84082e-05
1.23643e-06
2.92788e-05
3.69389e-05
1.20916e-06
1.14989e-05
3.23082e-05
1.0774e-06
4.63645e-06
2.97455e-05
9.49132e-07
2.56345e-06
2.80399e-05
8.39536e-07
1.70742e-06
2.6776e-05
7.46416e-07
1.26841e-06
2.57853e-05
6.68018e-07
9.98014e-07
2.49811e-05
6.01493e-07
8.13369e-07
2.43114e-05
5.44425e-07
6.80072e-07
2.37427e-05
4.94865e-07
5.79729e-07
2.32525e-05
4.51228e-07
5.0168e-07
2.28252e-05
4.12138e-07
4.39267e-07
2.24498e-05
3.76268e-07
3.88107e-07
2.21187e-05
3.42213e-07
3.45236e-07
2.18261e-05
3.0843e-07
3.08643e-07
2.15682e-05
2.73288e-07
2.77007e-07
2.13414e-05
2.35223e-07
2.49504e-07
2.11431e-05
1.92998e-07
2.25648e-07
2.09702e-05
1.45995e-07
2.05127e-07
2.082e-05
9.44662e-08
1.87641e-07
2.06894e-05
3.9659e-08
1.72779e-07
2.05755e-05
-1.62453e-08
1.60048e-07
2.04755e-05
-7.0355e-08
1.48803e-07
2.0387e-05
-1.19468e-07
1.37969e-07
2.0309e-05
-1.60643e-07
1.26527e-07
2.02406e-05
-1.91653e-07
1.14047e-07
2.01815e-05
-2.1126e-07
1.00531e-07
2.01315e-05
-2.19347e-07
8.63347e-08
2.00902e-05
-2.1686e-07
7.20238e-08
2.0057e-05
-2.05546e-07
5.8152e-08
2.00314e-05
-1.87603e-07
4.5239e-08
2.00123e-05
-1.65361e-07
3.3706e-08
1.99987e-05
-1.40966e-07
2.38066e-08
1.99895e-05
-1.16288e-07
1.56586e-08
1.99837e-05
-9.24673e-08
9.37724e-09
1.99803e-05
-7.09613e-08
4.95182e-09
1.99786e-05
-4.99671e-08
1.85083e-09
1.99779e-05
-3.61158e-08
3.43464e-10
-5.96299e-09
-5.39965e-09
7.73814e-05
8.69135e-07
8.96461e-05
4.81319e-05
1.03755e-06
2.94483e-05
3.66931e-05
1.04577e-06
1.16022e-05
3.21097e-05
9.57457e-07
4.70331e-06
2.95979e-05
8.57792e-07
2.60315e-06
2.79412e-05
7.66268e-07
1.72993e-06
2.67236e-05
6.84942e-07
1.27908e-06
2.57764e-05
6.14335e-07
1.00091e-06
2.50133e-05
5.53171e-07
8.11401e-07
2.43826e-05
4.99949e-07
6.75165e-07
2.38511e-05
4.53243e-07
5.7315e-07
2.33963e-05
4.11766e-07
4.94243e-07
2.30027e-05
3.74308e-07
4.3146e-07
2.26591e-05
3.39654e-07
3.80172e-07
2.23576e-05
3.06501e-07
3.3721e-07
2.20923e-05
2.73441e-07
3.00371e-07
2.18584e-05
2.39016e-07
2.68136e-07
2.16522e-05
2.0187e-07
2.39501e-07
2.14704e-05
1.60972e-07
2.13843e-07
2.13098e-05
1.15866e-07
1.90802e-07
2.11672e-05
6.68777e-08
1.7017e-07
2.10398e-05
1.52166e-08
1.51808e-07
2.09251e-05
-3.70938e-08
1.35558e-07
2.0821e-05
-8.74426e-08
1.21172e-07
2.07262e-05
-1.33015e-07
1.08349e-07
2.064e-05
-1.71236e-07
9.68017e-08
2.05622e-05
-2.00133e-07
8.62879e-08
2.04929e-05
-2.18583e-07
7.66148e-08
2.04323e-05
-2.26427e-07
6.76454e-08
2.03806e-05
-2.24419e-07
5.92933e-08
2.03376e-05
-2.14027e-07
5.15064e-08
2.03029e-05
-1.97161e-07
4.42836e-08
2.02757e-05
-1.75899e-07
3.7651e-08
2.02553e-05
-1.52195e-07
3.16379e-08
2.02406e-05
-1.27789e-07
2.62466e-08
2.02304e-05
-1.03792e-07
2.14777e-08
2.02237e-05
-8.15581e-08
1.73234e-08
2.02197e-05
-5.96444e-08
1.3678e-08
2.02164e-05
-4.31069e-08
1.02638e-08
-1.48844e-08
1.05282e-08
7.72584e-05
6.76329e-07
8.96011e-05
4.79939e-05
9.27331e-07
2.93747e-05
3.65735e-05
9.71878e-07
1.14944e-05
3.20109e-05
9.16747e-07
4.6033e-06
2.95174e-05
8.35153e-07
2.51607e-06
2.78758e-05
7.51944e-07
1.65594e-06
2.66709e-05
6.7406e-07
1.2158e-06
2.57349e-05
6.04411e-07
9.45981e-07
2.4982e-05
5.43148e-07
7.62868e-07
2.4361e-05
4.89483e-07
6.31464e-07
2.38388e-05
4.42324e-07
5.33089e-07
2.33932e-05
4.00511e-07
4.56924e-07
2.30084e-05
3.62882e-07
3.96212e-07
2.26733e-05
3.28247e-07
3.46488e-07
2.23798e-05
2.9536e-07
3.04685e-07
2.21216e-05
2.62918e-07
2.6865e-07
2.18942e-05
2.29623e-07
2.36865e-07
2.16934e-05
1.943e-07
2.08295e-07
2.15161e-05
1.56087e-07
1.8227e-07
2.13589e-05
1.14628e-07
1.58395e-07
2.12191e-05
7.02293e-08
1.3647e-07
2.10939e-05
2.39345e-08
1.16407e-07
2.09812e-05
-2.25471e-08
9.81657e-08
2.08791e-05
-6.7039e-08
8.17134e-08
2.07863e-05
-1.07204e-07
6.6999e-08
2.0702e-05
-1.40894e-07
5.39477e-08
2.06259e-05
-1.66463e-07
4.24732e-08
2.05578e-05
-1.82984e-07
3.24971e-08
2.04977e-05
-1.90335e-07
2.39457e-08
2.04457e-05
-1.89165e-07
1.67408e-08
2.04016e-05
-1.80728e-07
1.08088e-08
2.03651e-05
-1.6665e-07
6.05739e-09
2.03355e-05
-1.48702e-07
2.33877e-09
2.03123e-05
-1.28556e-07
-4.29374e-10
2.02946e-05
-1.07703e-07
-2.31583e-09
2.02814e-05
-8.71415e-08
-3.45021e-09
2.02717e-05
-6.79999e-08
-3.93327e-09
2.02654e-05
-4.94733e-08
-3.86485e-09
2.0261e-05
-3.49202e-08
-3.72397e-09
-1.52996e-08
5.22217e-09
7.71839e-05
5.19227e-07
8.96399e-05
4.78783e-05
7.76889e-07
2.9456e-05
3.64421e-05
8.3616e-07
1.1572e-05
3.18787e-05
8.04909e-07
4.67516e-06
2.93914e-05
7.43108e-07
2.57942e-06
2.77584e-05
6.74503e-07
1.7104e-06
2.65629e-05
6.07621e-07
1.26191e-06
2.56362e-05
5.46293e-07
9.84837e-07
2.48922e-05
4.91486e-07
7.95696e-07
2.42793e-05
4.42973e-07
6.59373e-07
2.37646e-05
4.0004e-07
5.57015e-07
2.33257e-05
3.61788e-07
4.77636e-07
2.2947e-05
3.27245e-07
4.14322e-07
2.26174e-05
2.95388e-07
3.62479e-07
2.23287e-05
2.65138e-07
3.18935e-07
2.20747e-05
2.35377e-07
2.81455e-07
2.18509e-05
2.05e-07
2.48464e-07
2.16533e-05
1.73026e-07
2.18881e-07
2.14786e-05
1.38737e-07
1.92018e-07
2.13239e-05
1.01839e-07
1.67476e-07
2.11865e-05
6.2582e-08
1.45069e-07
2.10639e-05
2.18162e-08
1.24736e-07
2.09539e-05
-1.90662e-08
1.0648e-07
2.08549e-05
-5.82861e-08
9.03153e-08
2.07654e-05
-9.39153e-08
7.62264e-08
2.06845e-05
-1.24155e-07
6.41313e-08
2.06117e-05
-1.47588e-07
5.38852e-08
2.05468e-05
-1.63368e-07
4.52922e-08
2.04897e-05
-1.71302e-07
3.81374e-08
2.04401e-05
-1.71823e-07
3.21955e-08
2.0398e-05
-1.6588e-07
2.72485e-08
2.0363e-05
-1.54763e-07
2.31081e-08
2.03346e-05
-1.39914e-07
1.96075e-08
2.03122e-05
-1.22733e-07
1.66179e-08
2.02949e-05
-1.04498e-07
1.40388e-08
2.02821e-05
-8.61266e-08
1.17902e-08
2.02728e-05
-6.85399e-08
9.83674e-09
2.02667e-05
-5.14705e-08
8.12139e-09
2.02621e-05
-3.64712e-08
6.19435e-09
-1.99679e-08
1.18827e-08
7.71344e-05
4.18791e-07
8.96327e-05
4.78011e-05
6.65788e-07
2.94444e-05
3.63597e-05
7.38696e-07
1.15389e-05
3.18013e-05
7.2845e-07
4.63483e-06
2.93215e-05
6.84002e-07
2.53887e-06
2.76961e-05
6.27656e-07
1.67224e-06
2.65073e-05
5.69274e-07
1.22714e-06
2.55862e-05
5.13762e-07
9.53658e-07
2.48467e-05
4.63016e-07
7.67923e-07
2.42376e-05
4.17463e-07
6.34642e-07
2.37259e-05
3.76817e-07
5.34908e-07
2.32895e-05
3.40456e-07
4.57744e-07
2.29129e-05
3.07596e-07
3.96275e-07
2.2585e-05
2.77361e-07
3.45953e-07
2.22976e-05
2.48811e-07
3.03654e-07
2.20449e-05
2.20974e-07
2.67172e-07
2.1822e-05
1.92902e-07
2.34959e-07
2.16253e-05
1.63759e-07
2.05944e-07
2.14517e-05
1.32942e-07
1.79441e-07
2.12983e-05
1.002e-07
1.5505e-07
2.11625e-05
6.57332e-08
1.32579e-07
2.10422e-05
3.02276e-08
1.11971e-07
2.0935e-05
-5.18892e-09
9.32403e-08
2.08394e-05
-3.90739e-08
7.64204e-08
2.07538e-05
-6.98618e-08
6.15332e-08
2.06772e-05
-9.60897e-08
4.85659e-08
2.06088e-05
-1.16599e-07
3.7454e-08
2.0548e-05
-1.30691e-07
2.80921e-08
2.04945e-05
-1.38196e-07
2.03498e-08
2.04481e-05
-1.39459e-07
1.40692e-08
2.04084e-05
-1.35245e-07
9.08872e-09
2.0375e-05
-1.26607e-07
5.23728e-09
2.03475e-05
-1.14729e-07
2.33295e-09
2.03253e-05
-1.00777e-07
2.11985e-10
2.03078e-05
-8.58132e-08
-1.21522e-09
2.02944e-05
-7.06424e-08
-2.08098e-09
2.02844e-05
-5.59864e-08
-2.48715e-09
2.02774e-05
-4.19871e-08
-2.56331e-09
2.02726e-05
-2.92838e-08
-2.38327e-09
-1.78024e-08
4.84795e-09
7.71072e-05
3.33315e-07
8.9645e-05
4.77479e-05
5.5082e-07
2.94742e-05
3.62918e-05
6.23581e-07
1.15713e-05
3.17276e-05
6.24011e-07
4.6686e-06
2.92469e-05
5.91872e-07
2.57285e-06
2.76232e-05
5.46501e-07
1.70482e-06
2.64375e-05
4.97493e-07
1.25748e-06
2.55201e-05
4.49815e-07
9.81381e-07
2.47844e-05
4.05638e-07
7.93012e-07
2.4179e-05
3.65656e-07
6.57247e-07
2.36707e-05
3.29804e-07
5.5526e-07
2.32375e-05
2.97641e-07
4.76105e-07
2.28636e-05
2.68533e-07
4.12906e-07
2.25381e-05
2.41746e-07
3.61098e-07
2.22529e-05
2.16484e-07
3.17532e-07
2.2002e-05
1.91927e-07
2.79979e-07
2.17807e-05
1.67278e-07
2.46869e-07
2.15855e-05
1.41838e-07
2.17121e-07
2.14133e-05
1.15105e-07
1.90036e-07
2.12615e-05
8.6862e-08
1.65209e-07
2.11275e-05
5.72592e-08
1.42453e-07
2.10092e-05
2.68389e-08
1.21717e-07
2.09045e-05
-3.49861e-09
1.03018e-07
2.08116e-05
-3.25937e-08
8.63886e-08
2.07291e-05
-5.91782e-08
7.1843e-08
2.06557e-05
-8.20474e-08
5.93392e-08
2.05905e-05
-1.00227e-07
4.87707e-08
2.0533e-05
-1.131e-07
3.99731e-08
2.04825e-05
-1.20467e-07
3.27428e-08
2.04387e-05
-1.22545e-07
2.68594e-08
2.04013e-05
-1.199e-07
2.20986e-08
2.03698e-05
-1.13343e-07
1.825e-08
2.03437e-05
-1.03818e-07
1.51278e-08
2.03227e-05
-9.22782e-08
1.25747e-08
2.0306e-05
-7.96061e-08
1.04661e-08
2.02932e-05
-6.65137e-08
8.69521e-09
2.02835e-05
-5.3564e-08
7.23019e-09
2.02768e-05
-4.11266e-08
5.87803e-09
2.02717e-05
-2.89748e-08
4.741e-09
-1.88481e-08
8.70757e-09
7.70866e-05
2.68999e-07
8.96444e-05
4.77072e-05
4.56049e-07
2.94742e-05
3.62416e-05
5.26867e-07
1.15623e-05
3.16757e-05
5.36052e-07
4.65387e-06
2.91969e-05
5.15138e-07
2.55554e-06
2.75768e-05
4.80225e-07
1.6864e-06
2.63951e-05
4.40182e-07
1.23898e-06
2.54816e-05
3.99881e-07
9.6347e-07
2.47494e-05
3.6171e-07
7.76076e-07
2.4147e-05
3.26647e-07
6.41466e-07
2.36412e-05
2.94889e-07
5.40685e-07
2.32099e-05
2.66212e-07
4.62704e-07
2.28377e-05
2.4017e-07
4.006e-07
2.25134e-05
2.16188e-07
3.49786e-07
2.22292e-05
1.93625e-07
3.07098e-07
2.1979e-05
1.71808e-07
2.70306e-07
2.17584e-05
1.50083e-07
2.37833e-07
2.15637e-05
1.27878e-07
2.08595e-07
2.13922e-05
1.04779e-07
1.81886e-07
2.12411e-05
8.06019e-08
1.57298e-07
2.11083e-05
5.5459e-08
1.3464e-07
2.09915e-05
2.97747e-08
1.1386e-07
2.08888e-05
4.25943e-09
9.49853e-08
2.07983e-05
-2.01672e-08
7.8055e-08
2.07185e-05
-4.24963e-08
6.31045e-08
2.06481e-05
-6.17662e-08
5.01229e-08
2.0586e-05
-7.71951e-08
3.90489e-08
2.05314e-05
-8.82838e-08
2.9768e-08
2.04837e-05
-9.48628e-08
2.21298e-08
2.04423e-05
-9.70945e-08
1.59604e-08
2.04067e-05
-9.54256e-08
1.1075e-08
2.03766e-05
-9.05026e-08
7.28762e-09
2.03515e-05
-8.30849e-08
4.42155e-09
2.03308e-05
-7.39442e-08
2.31095e-09
2.03142e-05
-6.37985e-08
7.99947e-10
2.03012e-05
-5.32548e-08
-2.30769e-10
2.02912e-05
-4.27465e-08
-8.22821e-10
2.0284e-05
-3.27588e-08
-1.21933e-09
2.0279e-05
-2.28623e-08
-1.0445e-09
-1.55341e-08
3.28386e-09
7.7075e-05
2.11929e-07
8.96488e-05
4.76803e-05
3.65191e-07
2.94856e-05
3.62044e-05
4.27586e-07
1.15751e-05
3.16333e-05
4.39299e-07
4.66786e-06
2.91524e-05
4.25172e-07
2.57087e-06
2.75322e-05
3.98129e-07
1.70233e-06
2.63516e-05
3.65859e-07
1.25493e-06
2.54397e-05
3.32725e-07
9.79015e-07
2.47095e-05
3.00983e-07
7.90941e-07
2.4109e-05
2.71634e-07
6.55491e-07
2.36051e-05
2.44956e-07
5.53802e-07
2.31756e-05
2.20826e-07
4.74906e-07
2.2805e-05
1.98906e-07
4.11922e-07
2.24821e-05
1.78738e-07
3.60288e-07
2.21991e-05
1.59801e-07
3.16856e-07
2.195e-05
1.41546e-07
2.79402e-07
2.17302e-05
1.23442e-07
2.46351e-07
2.15365e-05
1.05022e-07
2.1662e-07
2.13658e-05
8.5946e-08
1.89504e-07
2.12158e-05
6.60574e-08
1.64598e-07
2.10841e-05
4.54306e-08
1.41709e-07
2.09687e-05
2.43861e-08
1.20794e-07
2.08676e-05
3.47216e-09
1.01876e-07
2.0779e-05
-1.65958e-08
8.49986e-08
2.07014e-05
-3.50236e-08
7.01848e-08
2.06332e-05
-5.10447e-08
5.74089e-08
2.05735e-05
-6.40245e-08
4.65846e-08
2.05212e-05
-7.3541e-08
3.75652e-08
2.04756e-05
-7.94264e-08
3.0165e-08
2.04361e-05
-8.17731e-08
2.41715e-08
2.04022e-05
-8.09002e-08
1.93685e-08
2.03734e-05
-7.72948e-08
1.55438e-08
2.03494e-05
-7.15407e-08
1.25099e-08
2.03296e-05
-6.4248e-08
1.01011e-08
2.03136e-05
-5.59899e-08
8.18114e-09
2.0301e-05
-4.72741e-08
6.63023e-09
2.02912e-05
-3.84292e-08
5.41225e-09
2.02842e-05
-2.99452e-08
4.23589e-09
2.02788e-05
-2.114e-08
3.62603e-09
-1.46096e-08
5.76183e-09
7.70658e-05
1.63588e-07
8.96492e-05
4.76591e-05
2.84845e-07
2.94871e-05
3.61756e-05
3.37724e-07
1.15733e-05
3.16013e-05
3.50567e-07
4.66308e-06
2.91199e-05
3.42317e-07
2.56428e-06
2.75008e-05
3.22795e-07
1.69444e-06
2.63222e-05
2.98258e-07
1.24621e-06
2.54126e-05
2.72376e-07
9.69902e-07
2.46847e-05
2.47148e-07
7.81753e-07
2.40863e-05
2.23538e-07
6.46467e-07
2.35843e-05
2.01886e-07
5.45098e-07
2.31563e-05
1.82181e-07
4.66617e-07
2.27869e-05
1.64207e-07
4.04097e-07
2.24651e-05
1.47639e-07
3.52942e-07
2.21828e-05
1.32088e-07
3.09975e-07
2.19343e-05
1.17139e-07
2.72954e-07
2.1715e-05
1.02386e-07
2.40291e-07
2.15217e-05
8.74702e-08
2.10888e-07
2.13515e-05
7.21269e-08
1.84031e-07
2.1202e-05
5.62313e-08
1.59306e-07
2.10711e-05
3.98324e-08
1.36518e-07
2.09567e-05
2.31675e-08
1.15617e-07
2.08569e-05
6.64702e-09
9.66324e-08
2.07699e-05
-9.18929e-09
7.96155e-08
2.0694e-05
-2.374e-08
6.46021e-08
2.06278e-05
-3.64218e-08
5.15812e-08
2.057e-05
-4.67493e-08
4.04916e-08
2.05196e-05
-5.43962e-08
3.12181e-08
2.04758e-05
-5.92291e-08
2.36008e-08
2.04379e-05
-6.13138e-08
1.74557e-08
2.04053e-05
-6.08886e-08
1.25884e-08
2.03776e-05
-5.83237e-08
8.80494e-09
2.03542e-05
-5.40652e-08
5.91916e-09
2.03347e-05
-4.8584e-08
3.7682e-09
2.03189e-05
-4.23212e-08
2.20535e-09
2.03062e-05
-3.56803e-08
1.09563e-09
2.02963e-05
-2.89084e-08
3.77164e-10
2.0289e-05
-2.24518e-08
-2.44375e-10
2.02837e-05
-1.5752e-08
-7.50202e-11
-1.10697e-08
2.14901e-09
7.70605e-05
1.18917e-07
8.96509e-05
4.76453e-05
2.08332e-07
2.94917e-05
3.61555e-05
2.49e-07
1.15785e-05
3.15775e-05
2.5985e-07
4.66869e-06
2.90944e-05
2.54799e-07
2.57071e-06
2.74748e-05
2.40875e-07
1.70151e-06
2.62965e-05
2.22842e-07
1.2537e-06
2.53877e-05
2.03553e-07
9.77591e-07
2.46608e-05
1.84603e-07
7.89465e-07
2.40635e-05
1.66793e-07
6.54053e-07
2.35625e-05
1.50427e-07
5.52452e-07
2.31355e-05
1.35524e-07
4.73671e-07
2.27669e-05
1.21938e-07
4.1081e-07
2.24458e-05
1.09434e-07
3.59299e-07
2.21642e-05
9.77253e-08
3.15983e-07
2.19162e-05
8.65036e-08
2.7863e-07
2.16975e-05
7.54673e-08
2.4566e-07
2.15046e-05
6.43482e-08
2.15984e-07
2.13349e-05
5.2946e-08
1.88889e-07
2.1186e-05
4.11604e-08
1.63966e-07
2.10558e-05
2.90175e-08
1.41023e-07
2.09423e-05
1.66796e-08
1.20013e-07
2.08435e-05
4.43604e-09
1.00967e-07
2.07577e-05
-7.32734e-09
8.39376e-08
2.06832e-05
-1.81762e-08
6.89558e-08
2.06185e-05
-2.76841e-08
5.60049e-08
2.05622e-05
-3.54901e-08
4.50118e-08
2.05133e-05
-4.13435e-08
3.58401e-08
2.04709e-05
-4.51325e-08
2.83184e-08
2.04342e-05
-4.68872e-08
2.22406e-08
2.04027e-05
-4.67659e-08
1.73953e-08
2.03758e-05
-4.50246e-08
1.35768e-08
2.03532e-05
-4.19806e-08
1.05896e-08
2.03343e-05
-3.79729e-08
8.26793e-09
2.03188e-05
-3.33244e-08
6.46869e-09
2.03064e-05
-2.83376e-08
5.06152e-09
2.02967e-05
-2.31867e-08
4.00987e-09
2.02895e-05
-1.82236e-08
2.96162e-09
2.0284e-05
-1.29249e-08
2.70288e-09
-9.06406e-09
3.64953e-09
7.70565e-05
7.79129e-08
8.96512e-05
4.7635e-05
1.36923e-07
2.94929e-05
3.61407e-05
1.64853e-07
1.15784e-05
3.15603e-05
1.72927e-07
4.66733e-06
2.90762e-05
1.70437e-07
2.56848e-06
2.74568e-05
1.6181e-07
1.69851e-06
2.62793e-05
1.50234e-07
1.25009e-06
2.53716e-05
1.37637e-07
9.73557e-07
2.4646e-05
1.25126e-07
7.85166e-07
2.40498e-05
1.13274e-07
6.4963e-07
2.35499e-05
1.02316e-07
5.48018e-07
2.31239e-05
9.22901e-08
4.6931e-07
2.27561e-05
8.31199e-08
4.06586e-07
2.24356e-05
7.46625e-08
3.55251e-07
2.21545e-05
6.67391e-08
3.1213e-07
2.19068e-05
5.91553e-08
2.74979e-07
2.16884e-05
5.17176e-08
2.42202e-07
2.14958e-05
4.42524e-08
2.12698e-07
2.13264e-05
3.66282e-08
1.85749e-07
2.11778e-05
2.87783e-08
1.60932e-07
2.10481e-05
2.07158e-08
1.38053e-07
2.09351e-05
1.25423e-08
1.17062e-07
2.08371e-05
4.44246e-09
9.79911e-08
2.07522e-05
-3.33686e-09
8.08972e-08
2.06788e-05
-1.05144e-08
6.58191e-08
2.06151e-05
-1.6814e-08
5.27488e-08
2.056e-05
-2.20008e-08
4.16245e-08
2.05123e-05
-2.59108e-08
3.23293e-08
2.04709e-05
-2.84697e-08
2.47025e-08
2.04352e-05
-2.96959e-08
1.85536e-08
2.04044e-05
-2.96913e-08
1.36828e-08
2.03781e-05
-2.86228e-08
9.88997e-09
2.03558e-05
-2.66963e-08
6.98645e-09
2.03372e-05
-2.41346e-08
4.80499e-09
2.03218e-05
-2.11484e-08
3.19748e-09
2.03094e-05
-1.79384e-08
2.02651e-09
2.02996e-05
-1.46192e-08
1.2479e-09
2.02923e-05
-1.14331e-08
4.92085e-10
2.02868e-05
-8.06831e-09
6.37163e-10
-5.67408e-09
1.6441e-09
7.70544e-05
3.84649e-08
8.96517e-05
4.76291e-05
6.76173e-08
2.94946e-05
3.61318e-05
8.17561e-08
1.15803e-05
3.15496e-05
8.58487e-08
4.66933e-06
2.90645e-05
8.47072e-08
2.57082e-06
2.74447e-05
8.04334e-08
1.70117e-06
2.62673e-05
7.46421e-08
1.253e-06
2.53599e-05
6.8312e-08
9.76654e-07
2.46347e-05
6.20112e-08
7.88374e-07
2.4039e-05
5.6038e-08
6.52881e-07
2.35396e-05
5.05176e-08
5.51252e-07
2.31139e-05
4.54721e-08
4.72484e-07
2.27465e-05
4.0865e-08
4.09666e-07
2.24263e-05
3.66253e-08
3.58219e-07
2.21454e-05
3.26637e-08
3.14977e-07
2.1898e-05
2.88826e-08
2.77702e-07
2.16797e-05
2.51842e-08
2.44807e-07
2.14873e-05
2.14807e-08
2.15194e-07
2.13181e-05
1.77055e-08
1.88144e-07
2.11698e-05
1.38221e-08
1.6324e-07
2.10404e-05
9.8342e-09
1.40284e-07
2.09279e-05
5.78922e-09
1.19232e-07
2.08305e-05
1.7763e-09
1.00117e-07
2.07462e-05
-2.0852e-09
8.29953e-08
2.06734e-05
-5.65637e-09
6.79079e-08
2.06106e-05
-8.80091e-09
5.48433e-08
2.05562e-05
-1.14005e-08
4.37365e-08
2.05092e-05
-1.33711e-08
3.44634e-08
2.04686e-05
-1.46727e-08
2.68573e-08
2.04335e-05
-1.53108e-08
2.07218e-08
2.04033e-05
-1.53322e-08
1.58491e-08
2.03774e-05
-1.4817e-08
1.20325e-08
2.03555e-05
-1.38645e-08
9.08072e-09
2.03372e-05
-1.25848e-08
6.82144e-09
2.0322e-05
-1.10812e-08
5.11084e-09
2.03097e-05
-9.45471e-09
3.80991e-09
2.02999e-05
-7.76107e-09
2.88124e-09
2.02927e-05
-6.12093e-09
1.94485e-09
2.02871e-05
-4.35702e-09
1.90308e-09
-3.0351e-09
2.37855e-09
7.70533e-05
2.85575e-13
8.96518e-05
4.76259e-05
7.19199e-13
2.9495e-05
3.61272e-05
1.14656e-12
1.15804e-05
3.15441e-05
1.36462e-12
4.66897e-06
2.90587e-05
1.68879e-12
2.57017e-06
2.74389e-05
2.36187e-12
1.70024e-06
2.62617e-05
3.18013e-12
1.25183e-06
2.53547e-05
4.13693e-12
9.75288e-07
2.46298e-05
5.16355e-12
7.86867e-07
2.40346e-05
6.48834e-12
6.51279e-07
2.35355e-05
7.86588e-12
5.496e-07
2.31101e-05
9.52973e-12
4.70818e-07
2.2743e-05
1.05781e-11
4.08015e-07
2.2423e-05
1.1169e-11
3.56606e-07
2.21422e-05
1.08001e-11
3.13418e-07
2.18949e-05
9.22791e-12
2.76209e-07
2.16767e-05
6.33853e-12
2.43387e-07
2.14843e-05
1.90273e-12
2.13843e-07
2.13151e-05
-3.55491e-12
1.86859e-07
2.1167e-05
-9.52628e-12
1.62012e-07
2.10377e-05
-1.52063e-11
1.391e-07
2.09254e-05
-1.98725e-11
1.18078e-07
2.08283e-05
-2.2684e-11
9.89764e-08
2.07443e-05
-2.26042e-11
8.18575e-08
2.0672e-05
-2.03783e-11
6.67576e-08
2.06095e-05
-1.4982e-11
5.36724e-08
2.05556e-05
-7.53099e-12
4.2538e-08
2.0509e-05
1.3899e-12
3.32406e-08
2.04687e-05
1.09901e-11
2.56121e-08
2.04339e-05
2.0499e-11
1.94645e-08
2.04039e-05
2.94435e-11
1.45914e-08
2.03783e-05
3.69519e-11
1.07928e-08
2.03565e-05
4.23626e-11
7.87611e-09
2.03382e-05
4.56789e-11
5.66802e-09
2.0323e-05
4.68271e-11
4.0235e-09
2.03107e-05
4.57639e-11
2.80547e-09
2.0301e-05
4.39547e-11
1.96775e-09
2.02937e-05
3.87922e-11
1.13037e-09
2.02881e-05
3.57905e-11
1.21661e-09
2.27767e-11
1.76898e-09
7.70533e-05
-3.8464e-08
8.96518e-05
4.76259e-05
-6.7616e-08
2.9495e-05
3.61272e-05
-8.17542e-08
1.15804e-05
3.15441e-05
-8.58459e-08
4.66897e-06
2.90587e-05
-8.47035e-08
2.57017e-06
2.74389e-05
-8.04285e-08
1.70024e-06
2.62617e-05
-7.46357e-08
1.25183e-06
2.53547e-05
-6.83038e-08
9.75289e-07
2.46298e-05
-6.20008e-08
7.86866e-07
2.40346e-05
-5.6025e-08
6.5128e-07
2.35355e-05
-5.05016e-08
5.496e-07
2.31101e-05
-4.54536e-08
4.70818e-07
2.2743e-05
-4.08442e-08
4.08015e-07
2.2423e-05
-3.66035e-08
3.56606e-07
2.21422e-05
-3.26425e-08
3.13418e-07
2.18949e-05
-2.88643e-08
2.76209e-07
2.16767e-05
-2.51718e-08
2.43385e-07
2.14843e-05
-2.14771e-08
2.13842e-07
2.13152e-05
-1.77123e-08
1.86857e-07
2.1167e-05
-1.38406e-08
1.62009e-07
2.10377e-05
-9.86369e-09
1.39098e-07
2.09255e-05
-5.82751e-09
1.18075e-07
2.08283e-05
-1.81918e-09
9.89748e-08
2.07444e-05
2.04191e-09
8.18557e-08
2.0672e-05
5.61825e-09
6.67561e-08
2.06095e-05
8.77327e-09
5.36711e-08
2.05556e-05
1.13873e-08
4.25382e-08
2.0509e-05
1.33755e-08
3.32397e-08
2.04687e-05
1.46961e-08
2.56119e-08
2.04339e-05
1.5353e-08
1.94647e-08
2.04039e-05
1.53915e-08
1.45932e-08
2.03783e-05
1.48905e-08
1.0793e-08
2.03565e-05
1.39488e-08
7.87669e-09
2.03382e-05
1.26754e-08
5.66948e-09
2.0323e-05
1.11744e-08
4.0247e-09
2.03107e-05
9.5464e-09
2.80647e-09
2.0301e-05
7.84795e-09
1.96826e-09
2.02937e-05
6.19757e-09
1.13178e-09
2.0288e-05
4.42779e-09
1.2178e-09
3.08084e-09
1.76755e-09
7.70544e-05
-7.79122e-08
8.96517e-05
4.76291e-05
-1.36921e-07
2.94946e-05
3.61318e-05
-1.64851e-07
1.15803e-05
3.15496e-05
-1.72925e-07
4.66933e-06
2.90645e-05
-1.70433e-07
2.57082e-06
2.74447e-05
-1.61805e-07
1.70117e-06
2.62673e-05
-1.50227e-07
1.253e-06
2.53599e-05
-1.37629e-07
9.76654e-07
2.46347e-05
-1.25116e-07
7.88373e-07
2.4039e-05
-1.13261e-07
6.52881e-07
2.35396e-05
-1.02301e-07
5.51252e-07
2.31139e-05
-9.22721e-08
4.72483e-07
2.27465e-05
-8.30999e-08
4.09666e-07
2.24263e-05
-7.46412e-08
3.58218e-07
2.21454e-05
-6.67188e-08
3.14975e-07
2.1898e-05
-5.9138e-08
2.77701e-07
2.16797e-05
-5.17057e-08
2.44806e-07
2.14873e-05
-4.42484e-08
2.15192e-07
2.13181e-05
-3.66346e-08
1.88142e-07
2.11698e-05
-2.87954e-08
1.63236e-07
2.10404e-05
-2.0743e-08
1.4028e-07
2.09279e-05
-1.25777e-08
1.19228e-07
2.08305e-05
-4.48201e-09
1.00113e-07
2.07462e-05
3.29724e-09
8.29935e-08
2.06735e-05
1.04802e-08
6.79055e-08
2.06106e-05
1.67897e-08
5.48426e-08
2.05563e-05
2.19905e-08
4.37371e-08
2.05093e-05
2.59173e-08
3.44652e-08
2.04686e-05
2.84941e-08
2.68606e-08
2.04335e-05
2.9738e-08
2.07261e-08
2.04033e-05
2.97492e-08
1.58533e-08
2.03774e-05
2.86941e-08
1.20384e-08
2.03555e-05
2.67778e-08
9.08698e-09
2.03371e-05
2.42218e-08
6.82621e-09
2.0322e-05
2.12376e-08
5.11503e-09
2.03097e-05
1.80254e-08
3.81593e-09
2.02999e-05
1.47022e-08
2.88529e-09
2.02927e-05
1.15065e-08
1.94885e-09
2.02871e-05
8.13601e-09
1.90615e-09
5.71837e-09
2.37511e-09
7.70565e-05
-1.18917e-07
8.96512e-05
4.7635e-05
-2.0833e-07
2.94929e-05
3.61407e-05
-2.48998e-07
1.15784e-05
3.15603e-05
-2.59847e-07
4.66733e-06
2.90762e-05
-2.54795e-07
2.56848e-06
2.74568e-05
-2.4087e-07
1.69851e-06
2.62793e-05
-2.22836e-07
1.25009e-06
2.53716e-05
-2.03545e-07
9.73558e-07
2.4646e-05
-1.84594e-07
7.85166e-07
2.40498e-05
-1.66781e-07
6.49631e-07
2.35499e-05
-1.50412e-07
5.48018e-07
2.31239e-05
-1.35507e-07
4.6931e-07
2.27561e-05
-1.21919e-07
4.06586e-07
2.24356e-05
-1.09414e-07
3.55249e-07
2.21545e-05
-9.77055e-08
3.12129e-07
2.19069e-05
-8.64868e-08
2.74977e-07
2.16884e-05
-7.54557e-08
2.42199e-07
2.14958e-05
-6.43442e-08
2.12695e-07
2.13264e-05
-5.2951e-08
1.85745e-07
2.11778e-05
-4.11753e-08
1.60927e-07
2.10481e-05
-2.90413e-08
1.38046e-07
2.09352e-05
-1.67106e-08
1.17055e-07
2.08372e-05
-4.47097e-09
9.79861e-08
2.07523e-05
7.29326e-09
8.08932e-08
2.06788e-05
1.81472e-08
6.58154e-08
2.06152e-05
2.76648e-08
5.27471e-08
2.05601e-05
3.54841e-08
4.16245e-08
2.05123e-05
4.1353e-08
3.23325e-08
2.04709e-05
4.51587e-08
2.47061e-08
2.04352e-05
4.69296e-08
1.85587e-08
2.04044e-05
4.68231e-08
1.36888e-08
2.03781e-05
4.5094e-08
9.89628e-09
2.03558e-05
4.20585e-08
6.99445e-09
2.03372e-05
3.80563e-08
4.81286e-09
2.03218e-05
3.34097e-08
3.20293e-09
2.03094e-05
2.84209e-08
2.03113e-09
2.02996e-05
2.32663e-08
1.25215e-09
2.02923e-05
1.82936e-08
4.95414e-10
2.02868e-05
1.29897e-08
6.41299e-10
9.10626e-09
1.63824e-09
7.70605e-05
-1.63587e-07
8.96509e-05
4.76453e-05
-2.84843e-07
2.94917e-05
3.61555e-05
-3.37722e-07
1.15785e-05
3.15775e-05
-3.50564e-07
4.66869e-06
2.90944e-05
-3.42314e-07
2.57071e-06
2.74748e-05
-3.22791e-07
1.70151e-06
2.62965e-05
-2.98252e-07
1.2537e-06
2.53877e-05
-2.72369e-07
9.77592e-07
2.46608e-05
-2.47139e-07
7.89465e-07
2.40635e-05
-2.23526e-07
6.54053e-07
2.35625e-05
-2.01872e-07
5.52451e-07
2.31355e-05
-1.82165e-07
4.73669e-07
2.27669e-05
-1.64189e-07
4.10809e-07
2.24458e-05
-1.4762e-07
3.59298e-07
2.21642e-05
-1.32069e-07
3.1598e-07
2.19162e-05
-1.17123e-07
2.78626e-07
2.16975e-05
-1.02374e-07
2.45656e-07
2.15046e-05
-8.74649e-08
2.15978e-07
2.13349e-05
-7.21298e-08
1.88882e-07
2.11861e-05
-5.62429e-08
1.63959e-07
2.10558e-05
-3.98521e-08
1.41014e-07
2.09423e-05
-2.3193e-08
1.20005e-07
2.08436e-05
-6.67542e-09
1.0096e-07
2.07578e-05
9.16176e-09
8.39329e-08
2.06832e-05
2.37176e-08
6.89528e-08
2.06185e-05
3.64082e-08
5.60047e-08
2.05622e-05
4.67479e-08
4.50134e-08
2.05133e-05
5.44088e-08
3.58445e-08
2.04709e-05
5.92566e-08
2.83238e-08
2.04342e-05
6.13558e-08
2.22497e-08
2.04027e-05
6.09434e-08
1.74055e-08
2.03758e-05
5.83889e-08
1.35869e-08
2.03531e-05
5.41382e-08
1.06017e-08
2.03343e-05
4.86611e-08
8.27767e-09
2.03188e-05
4.23995e-08
6.47895e-09
2.03064e-05
3.57567e-08
5.07148e-09
2.02966e-05
2.89807e-08
4.01869e-09
2.02895e-05
2.25154e-08
2.96907e-09
2.02839e-05
1.58111e-08
2.70988e-09
1.11078e-08
3.64334e-09
7.70658e-05
-2.11929e-07
8.96492e-05
4.76591e-05
-3.6519e-07
2.94871e-05
3.61756e-05
-4.27584e-07
1.15733e-05
3.16013e-05
-4.39296e-07
4.66308e-06
2.91199e-05
-4.25169e-07
2.56428e-06
2.75008e-05
-3.98125e-07
1.69444e-06
2.63222e-05
-3.65854e-07
1.24621e-06
2.54126e-05
-3.32718e-07
9.699e-07
2.46847e-05
-3.00975e-07
7.81754e-07
2.40863e-05
-2.71624e-07
6.46468e-07
2.35843e-05
-2.44943e-07
5.45098e-07
2.31563e-05
-2.20811e-07
4.66617e-07
2.27869e-05
-1.9889e-07
4.04095e-07
2.24651e-05
-1.78721e-07
3.52939e-07
2.21828e-05
-1.59784e-07
3.09972e-07
2.19343e-05
-1.41531e-07
2.7295e-07
2.17151e-05
-1.2343e-07
2.40286e-07
2.15217e-05
-1.05016e-07
2.10881e-07
2.13515e-05
-8.59465e-08
1.84024e-07
2.1202e-05
-6.60652e-08
1.59297e-07
2.10711e-05
-4.54448e-08
1.36508e-07
2.09567e-05
-2.44047e-08
1.15607e-07
2.08569e-05
-3.49267e-09
9.66243e-08
2.07699e-05
1.65764e-08
7.96099e-08
2.0694e-05
3.50092e-08
6.45976e-08
2.06278e-05
5.1038e-08
5.15795e-08
2.057e-05
6.40285e-08
4.04943e-08
2.05197e-05
7.35572e-08
3.12233e-08
2.04759e-05
7.94556e-08
2.36087e-08
2.04379e-05
8.18149e-08
1.74659e-08
2.04053e-05
8.09534e-08
1.25985e-08
2.03775e-05
7.73564e-08
8.81585e-09
2.03541e-05
7.16087e-08
5.93047e-09
2.03347e-05
6.43193e-08
3.77804e-09
2.03188e-05
5.60618e-08
2.21648e-09
2.03061e-05
4.73439e-08
1.10386e-09
2.02962e-05
3.84952e-08
3.84782e-10
2.0289e-05
3.00034e-08
-2.39298e-10
2.02837e-05
2.11941e-08
-6.82982e-11
1.46446e-08
2.13787e-09
7.7075e-05
-2.68998e-07
8.96488e-05
4.76803e-05
-4.56047e-07
2.94856e-05
3.62044e-05
-5.26865e-07
1.15751e-05
3.16333e-05
-5.36049e-07
4.66786e-06
2.91524e-05
-5.15135e-07
2.57087e-06
2.75322e-05
-4.80221e-07
1.70233e-06
2.63516e-05
-4.40177e-07
1.25493e-06
2.54397e-05
-3.99875e-07
9.79015e-07
2.47095e-05
-3.61702e-07
7.9094e-07
2.4109e-05
-3.26637e-07
6.55492e-07
2.36052e-05
-2.94878e-07
5.53802e-07
2.31756e-05