/*--------------------------------*- C++ -*----------------------------------*\
| =========                 |                                                 |
| \\      /  F ield         | OpenFOAM: The Open Source CFD Toolbox           |
|  \\    /   O peration     | Version:  v1806                                 |
|   \\  /    A nd           | Web:      www.OpenFOAM.com                      |
|    \\/     M anipulation  |                                                 |
\*---------------------------------------------------------------------------*/
FoamFile
{
    version     2.0;
    format      ascii;
    class       volScalarField;
    location    "150/porous";
    object      T;
}
// * * * * * * * * * * * * * * * * * * * * * * * * * * * * * * * * * * * * * //

dimensions      [0 0 0 1 0 0 0];


internalField   nonuniform List<scalar> 
36000
(
400
400
400
400
399.999
399.574
399.192
398.838
398.502
398.178
397.863
397.554
397.251
396.951
396.655
396.362
396.072
395.785
395.501
395.221
394.943
394.666
394.387
394.103
393.808
393.496
393.157
392.778
392.346
391.846
391.26
390.571
389.761
388.816
387.726
387.135
386.202
385.003
383.578
381.98
400
400
400
400
399.999
399.624
399.288
398.979
398.687
398.41
398.142
397.882
397.628
397.378
397.134
396.892
396.655
396.421
396.192
395.966
395.745
395.528
395.313
395.099
394.884
394.664
394.433
394.183
393.903
393.582
393.207
392.764
392.239
391.614
390.877
390.489
389.852
388.994
387.931
386.685
400
400
400
400
399.999
399.631
399.302
399.003
398.722
398.457
398.202
397.957
397.719
397.488
397.261
397.039
396.821
396.608
396.399
396.195
395.995
395.8
395.607
395.415
395.221
395.023
394.815
394.59
394.34
394.055
393.723
393.331
392.866
392.31
391.651
391.32
390.754
389.977
388.997
387.835
400
400
400
400
399.999
399.63
399.301
399.002
398.723
398.46
398.208
397.965
397.731
397.503
397.28
397.063
396.85
396.642
396.438
396.239
396.044
395.852
395.662
395.473
395.282
395.086
394.881
394.659
394.412
394.131
393.804
393.418
392.959
392.411
391.76
391.434
390.876
390.107
389.137
387.985
400
400
400
400
399.999
399.629
399.301
399.001
398.722
398.459
398.207
397.965
397.731
397.504
397.282
397.064
396.852
396.645
396.443
396.245
396.05
395.859
395.67
395.482
395.292
395.097
394.893
394.673
394.428
394.149
393.825
393.442
392.986
392.442
391.794
391.47
390.913
390.147
389.178
388.026
400
400
400
400
399.999
399.628
399.299
398.999
398.719
398.454
398.202
397.96
397.725
397.497
397.274
397.057
396.845
396.638
396.435
396.236
396.042
395.851
395.662
395.473
395.283
395.088
394.884
394.663
394.419
394.14
393.815
393.432
392.977
392.433
391.785
391.461
390.904
390.137
389.168
388.016
400
400
400
400
399.999
399.627
399.298
398.997
398.717
398.452
398.2
397.957
397.722
397.493
397.27
397.053
396.84
396.633
396.43
396.231
396.037
395.845
395.656
395.468
395.279
395.084
394.88
394.66
394.417
394.139
393.816
393.435
392.981
392.439
391.794
391.471
390.916
390.15
389.182
388.03
400
400
400
400
399.999
399.626
399.296
398.995
398.715
398.449
398.196
397.952
397.717
397.488
397.264
397.046
396.834
396.626
396.422
396.223
396.028
395.837
395.648
395.459
395.27
395.075
394.871
394.651
394.408
394.13
393.808
393.427
392.974
392.433
391.788
391.465
390.91
390.145
389.178
388.027
400
400
400
400
399.999
399.626
399.296
398.994
398.713
398.447
398.194
397.95
397.714
397.484
397.261
397.043
396.83
396.622
396.418
396.219
396.023
395.832
395.643
395.455
395.265
395.071
394.867
394.648
394.405
394.129
393.808
393.429
392.977
392.438
391.795
391.474
390.921
390.156
389.191
388.04
400
400
400
400
399.999
399.626
399.295
398.993
398.712
398.445
398.191
397.947
397.711
397.481
397.257
397.039
396.825
396.617
396.412
396.213
396.017
395.825
395.636
395.448
395.258
395.064
394.861
394.642
394.399
394.124
393.803
393.424
392.974
392.435
391.793
391.473
390.921
390.158
389.193
388.044
400
400
400
400
399.999
399.625
399.294
398.992
398.711
398.444
398.19
397.945
397.709
397.479
397.255
397.036
396.823
396.614
396.409
396.209
396.013
395.821
395.631
395.443
395.254
395.061
394.858
394.639
394.398
394.123
393.803
393.426
392.977
392.44
391.8
391.482
390.931
390.17
389.206
388.058
400
400
400
400
399.999
399.625
399.294
398.992
398.71
398.443
398.188
397.944
397.707
397.477
397.253
397.034
396.82
396.61
396.405
396.205
396.009
395.817
395.627
395.439
395.25
395.057
394.854
394.636
394.394
394.12
393.801
393.425
392.977
392.441
391.802
391.485
390.936
390.176
389.214
388.067
400
400
400
400
399.999
399.625
399.294
398.992
398.709
398.442
398.188
397.943
397.706
397.476
397.251
397.033
396.818
396.608
396.404
396.204
396.009
395.816
395.626
395.438
395.249
395.056
394.854
394.636
394.395
394.121
393.803
393.428
392.981
392.447
391.81
391.495
390.947
390.189
389.228
388.082
400
400
400
400
399.999
399.626
399.294
398.992
398.709
398.442
398.187
397.942
397.705
397.475
397.25
397.031
396.817
396.607
396.403
396.203
396.008
395.816
395.626
395.438
395.249
395.056
394.853
394.636
394.395
394.122
393.805
393.43
392.985
392.452
391.816
391.502
390.957
390.199
389.24
388.096
400
400
400
400
399.999
399.626
399.294
398.992
398.709
398.442
398.187
397.942
397.705
397.474
397.25
397.031
396.817
396.607
396.403
396.203
396.008
395.816
395.626
395.438
395.249
395.056
394.854
394.637
394.397
394.124
393.808
393.434
392.989
392.458
391.823
391.511
390.966
390.211
389.252
388.109
400
400
400
400
399.999
399.626
399.295
398.992
398.709
398.442
398.187
397.942
397.705
397.474
397.25
397.031
396.817
396.607
396.403
396.203
396.008
395.816
395.626
395.438
395.249
395.056
394.854
394.637
394.397
394.124
393.808
393.434
392.989
392.457
391.822
391.51
390.965
390.21
389.251
388.108
400
400
400
400
399.999
399.626
399.295
398.992
398.71
398.442
398.187
397.942
397.705
397.475
397.25
397.031
396.817
396.607
396.403
396.203
396.008
395.816
395.626
395.438
395.249
395.056
394.853
394.636
394.396
394.123
393.805
393.43
392.984
392.451
391.815
391.501
390.955
390.197
389.238
388.093
400
400
400
400
399.999
399.626
399.295
398.993
398.71
398.443
398.188
397.943
397.706
397.476
397.251
397.033
396.818
396.608
396.404
396.204
396.009
395.816
395.626
395.438
395.249
395.056
394.854
394.636
394.395
394.122
393.803
393.428
392.98
392.446
391.808
391.492
390.945
390.186
389.225
388.079
400
400
400
400
399.999
399.626
399.296
398.993
398.711
398.444
398.189
397.944
397.707
397.477
397.253
397.034
396.82
396.61
396.405
396.205
396.01
395.817
395.627
395.439
395.25
395.057
394.854
394.636
394.394
394.12
393.801
393.424
392.975
392.439
391.799
391.482
390.933
390.172
389.21
388.062
400
400
400
400
399.999
399.627
399.296
398.994
398.712
398.445
398.191
397.946
397.709
397.479
397.255
397.037
396.823
396.614
396.409
396.209
396.013
395.821
395.631
395.444
395.255
395.061
394.858
394.639
394.397
394.122
393.802
393.425
392.975
392.437
391.796
391.477
390.927
390.165
389.201
388.052
400
400
400
400
399.999
399.627
399.296
398.995
398.713
398.446
398.192
397.948
397.711
397.481
397.258
397.039
396.826
396.617
396.413
396.213
396.017
395.825
395.636
395.448
395.258
395.064
394.861
394.641
394.399
394.123
393.802
393.423
392.972
392.432
391.788
391.468
390.916
390.153
389.187
388.037
400
400
400
400
399.999
399.627
399.297
398.996
398.715
398.449
398.195
397.951
397.715
397.485
397.262
397.044
396.831
396.622
396.418
396.219
396.024
395.832
395.643
395.455
395.265
395.071
394.867
394.648
394.405
394.128
393.807
393.427
392.975
392.434
391.789
391.468
390.915
390.15
389.184
388.033
400
400
400
400
399.999
399.628
399.298
398.997
398.716
398.45
398.197
397.954
397.718
397.488
397.265
397.047
396.834
396.626
396.423
396.224
396.029
395.837
395.648
395.46
395.27
395.075
394.87
394.651
394.407
394.13
393.807
393.425
392.971
392.429
391.782
391.46
390.904
390.138
389.171
388.019
400
400
400
400
399.999
399.628
399.299
398.999
398.718
398.453
398.201
397.958
397.723
397.494
397.271
397.053
396.841
396.633
396.43
396.232
396.037
395.846
395.657
395.468
395.279
395.084
394.88
394.66
394.416
394.138
393.815
393.433
392.979
392.436
391.788
391.465
390.909
390.143
389.174
388.022
400
400
400
400
399.999
399.629
399.3
399
398.72
398.456
398.203
397.961
397.726
397.498
397.275
397.058
396.845
396.638
396.435
396.237
396.042
395.851
395.662
395.473
395.283
395.088
394.883
394.663
394.418
394.139
393.814
393.431
392.974
392.429
391.78
391.455
390.898
390.13
389.161
388.008
400
400
400
400
399.999
399.63
399.302
399.003
398.724
398.46
398.208
397.966
397.732
397.505
397.282
397.065
396.853
396.646
396.443
396.245
396.051
395.859
395.671
395.482
395.292
395.097
394.893
394.672
394.427
394.148
393.823
393.44
392.983
392.438
391.789
391.465
390.908
390.14
389.171
388.018
400
400
400
400
399.999
399.631
399.303
399.004
398.725
398.461
398.209
397.966
397.732
397.504
397.281
397.063
396.85
396.642
396.439
396.239
396.044
395.852
395.662
395.473
395.282
395.086
394.881
394.658
394.412
394.13
393.803
393.416
392.957
392.409
391.756
391.43
390.871
390.101
389.131
387.977
400
400
400
400
399.999
399.631
399.304
399.004
398.724
398.458
398.203
397.958
397.72
397.488
397.262
397.039
396.821
396.608
396.4
396.196
395.996
395.8
395.607
395.415
395.221
395.023
394.815
394.59
394.339
394.054
393.722
393.33
392.864
392.308
391.647
391.316
390.75
389.971
388.991
387.828
400
400
400
400
399.999
399.625
399.289
398.98
398.689
398.411
398.143
397.883
397.628
397.379
397.134
396.893
396.656
396.422
396.193
395.967
395.746
395.528
395.313
395.099
394.885
394.665
394.434
394.183
393.903
393.582
393.207
392.764
392.238
391.613
390.875
390.488
389.85
388.992
387.929
386.683
400
400
400
400
399.999
399.575
399.193
398.839
398.503
398.179
397.864
397.556
397.252
396.952
396.656
396.363
396.073
395.786
395.503
395.222
394.944
394.666
394.387
394.103
393.809
393.497
393.158
392.78
392.348
391.849
391.264
390.576
389.768
388.824
387.736
387.147
386.216
385.019
383.597
382.001
400
400
400
400
399.999
399.774
399.519
399.247
398.967
398.681
398.394
398.106
397.818
397.532
397.246
396.962
396.68
396.4
396.121
395.845
395.571
395.297
395.021
394.742
394.453
394.148
393.818
393.453
393.04
392.563
392.007
391.355
390.588
389.691
388.652
387.864
386.886
385.702
384.317
382.759
400
400
400
400
400
399.806
399.59
399.363
399.129
398.892
398.654
398.417
398.182
397.948
397.717
397.487
397.259
397.034
396.812
396.594
396.379
396.166
395.956
395.748
395.539
395.326
395.104
394.866
394.603
394.304
393.956
393.547
393.062
392.486
391.804
391.263
390.583
389.74
388.723
387.535
400
400
400
400
400
399.81
399.601
399.382
399.158
398.933
398.708
398.486
398.267
398.05
397.836
397.625
397.417
397.212
397.011
396.814
396.62
396.43
396.242
396.056
395.868
395.677
395.477
395.263
395.027
394.76
394.452
394.089
393.659
393.146
392.534
392.052
391.437
390.668
389.729
388.62
400
400
400
400
400
399.809
399.6
399.381
399.159
398.935
398.713
398.493
398.277
398.064
397.854
397.648
397.444
397.245
397.049
396.856
396.667
396.48
396.296
396.112
395.927
395.738
395.541
395.329
395.096
394.832
394.527
394.169
393.744
393.237
392.633
392.155
391.547
390.785
389.854
388.753
400
400
400
400
400
399.809
399.6
399.381
399.158
398.935
398.713
398.494
398.278
398.065
397.856
397.65
397.448
397.249
397.054
396.862
396.674
396.489
396.305
396.122
395.938
395.75
395.554
395.344
395.112
394.851
394.548
394.193
393.771
393.267
392.666
392.19
391.584
390.824
389.894
388.794
400
400
400
400
400
399.808
399.598
399.379
399.155
398.93
398.708
398.488
398.272
398.059
397.849
397.643
397.44
397.241
397.046
396.854
396.666
396.48
396.296
396.113
395.929
395.741
395.544
395.334
395.103
394.841
394.539
394.183
393.761
393.257
392.656
392.18
391.573
390.812
389.883
388.782
400
400
400
400
400
399.808
399.598
399.378
399.153
398.929
398.706
398.486
398.269
398.056
397.846
397.639
397.436
397.237
397.042
396.85
396.661
396.475
396.292
396.109
395.925
395.737
395.541
395.332
395.101
394.841
394.54
394.186
393.766
393.264
392.665
392.19
391.585
390.826
389.897
388.797
400
400
400
400
400
399.808
399.597
399.376
399.151
398.926
398.702
398.482
398.264
398.05
397.84
397.633
397.43
397.23
397.034
396.842
396.653
396.467
396.283
396.1
395.916
395.728
395.532
395.322
395.092
394.832
394.531
394.178
393.758
393.256
392.658
392.184
391.579
390.82
389.892
388.793
400
400
400
400
400
399.807
399.596
399.375
399.15
398.925
398.701
398.48
398.262
398.048
397.837
397.63
397.427
397.227
397.031
396.838
396.649
396.463
396.279
396.096
395.912
395.725
395.529
395.32
395.09
394.831
394.531
394.179
393.761
393.261
392.664
392.192
391.589
390.832
389.905
388.807
400
400
400
400
400
399.807
399.596
399.374
399.149
398.923
398.699
398.477
398.259
398.044
397.833
397.626
397.422
397.222
397.025
396.832
396.643
396.456
396.272
396.089
395.905
395.718
395.522
395.313
395.084
394.825
394.526
394.174
393.757
393.258
392.662
392.191
391.589
390.832
389.906
388.809
400
400
400
400
400
399.807
399.595
399.374
399.148
398.922
398.697
398.476
398.258
398.043
397.831
397.624
397.42
397.219
397.022
396.829
396.639
396.453
396.268
396.086
395.902
395.715
395.519
395.311
395.082
394.824
394.526
394.176
393.76
393.263
392.668
392.199
391.598
390.844
389.919
388.823
400
400
400
400
400
399.807
399.595
399.373
399.147
398.921
398.696
398.474
398.256
398.041
397.829
397.621
397.417
397.216
397.019
396.825
396.636
396.449
396.264
396.081
395.898
395.711
395.516
395.307
395.079
394.821
394.524
394.174
393.759
393.263
392.67
392.202
391.603
390.849
389.926
388.831
400
400
400
400
400
399.807
399.595
399.373
399.147
398.92
398.696
398.474
398.255
398.04
397.828
397.62
397.416
397.215
397.017
396.824
396.635
396.448
396.263
396.081
395.897
395.71
395.515
395.308
395.08
394.823
394.526
394.178
393.764
393.269
392.677
392.211
391.613
390.861
389.94
388.846
400
400
400
400
400
399.807
399.595
399.373
399.147
398.92
398.695
398.473
398.254
398.039
397.827
397.619
397.415
397.213
397.016
396.823
396.634
396.447
396.263
396.08
395.896
395.709
395.515
395.307
395.08
394.823
394.527
394.18
393.767
393.273
392.683
392.217
391.622
390.871
389.951
388.859
400
400
400
400
400
399.807
399.595
399.373
399.147
398.92
398.695
398.473
398.254
398.039
397.827
397.619
397.414
397.213
397.016
396.823
396.634
396.447
396.263
396.08
395.897
395.71
395.515
395.308
395.081
394.825
394.53
394.183
393.771
393.278
392.689
392.225
391.631
390.882
389.963
388.872
400
400
400
400
400
399.807
399.595
399.373
399.147
398.92
398.695
398.473
398.254
398.039
397.827
397.619
397.414
397.213
397.016
396.823
396.634
396.447
396.263
396.08
395.897
395.71
395.515
395.308
395.081
394.825
394.53
394.183
393.771
393.278
392.689
392.225
391.63
390.881
389.962
388.871
400
400
400
400
400
399.807
399.596
399.374
399.147
398.92
398.695
398.473
398.254
398.039
397.827
397.619
397.415
397.213
397.016
396.823
396.634
396.447
396.263
396.08
395.896
395.709
395.515
395.307
395.08
394.823
394.527
394.179
393.766
393.272
392.681
392.216
391.62
390.869
389.949
388.856
400
400
400
400
400
399.807
399.596
399.374
399.148
398.921
398.696
398.474
398.255
398.04
397.828
397.62
397.416
397.215
397.018
396.824
396.635
396.448
396.264
396.081
395.897
395.71
395.515
395.308
395.08
394.823
394.526
394.177
393.763
393.268
392.675
392.208
391.611
390.859
389.937
388.843
400
400
400
400
400
399.807
399.596
399.374
399.148
398.922
398.697
398.475
398.256
398.041
397.829
397.622
397.417
397.216
397.019
396.826
396.636
396.449
396.264
396.081
395.898
395.711
395.516
395.307
395.079
394.821
394.524
394.174
393.758
393.261
392.667
392.199
391.599
390.845
389.922
388.827
400
400
400
400
400
399.808
399.596
399.375
399.149
398.923
398.698
398.476
398.258
398.043
397.832
397.624
397.42
397.22
397.023
396.829
396.64
396.453
396.269
396.086
395.902
395.715
395.519
395.311
395.082
394.824
394.526
394.175
393.758
393.26
392.665
392.195
391.594
390.839
389.914
388.818
400
400
400
400
400
399.808
399.597
399.375
399.15
398.924
398.699
398.478
398.26
398.045
397.834
397.626
397.423
397.222
397.026
396.833
396.643
396.457
396.272
396.089
395.906
395.718
395.522
395.313
395.083
394.824
394.525
394.173
393.755
393.256
392.658
392.187
391.584
390.827
389.901
388.803
400
400
400
400
400
399.808
399.597
399.376
399.151
398.926
398.702
398.481
398.263
398.049
397.838
397.631
397.427
397.227
397.031
396.838
396.649
396.463
396.279
396.096
395.912
395.725
395.529
395.319
395.09
394.83
394.53
394.178
393.759
393.259
392.66
392.188
391.584
390.826
389.898
388.8
400
400
400
400
400
399.808
399.598
399.377
399.152
398.927
398.703
398.483
398.265
398.051
397.841
397.634
397.43
397.231
397.035
396.842
396.653
396.467
396.283
396.1
395.916
395.728
395.532
395.322
395.091
394.831
394.53
394.176
393.756
393.253
392.653
392.179
391.574
390.814
389.885
388.785
400
400
400
400
400
399.809
399.599
399.379
399.154
398.93
398.707
398.487
398.27
398.056
397.846
397.64
397.437
397.238
397.042
396.85
396.661
396.476
396.292
396.109
395.925
395.737
395.541
395.331
395.101
394.84
394.539
394.185
393.764
393.261
392.66
392.185
391.58
390.82
389.89
388.789
400
400
400
400
400
399.809
399.599
399.379
399.156
398.931
398.709
398.489
398.273
398.06
397.85
397.643
397.441
397.242
397.046
396.855
396.666
396.48
396.297
396.114
395.929
395.741
395.544
395.334
395.102
394.84
394.537
394.182
393.759
393.254
392.652
392.175
391.568
390.806
389.876
388.775
400
400
400
400
400
399.81
399.601
399.382
399.159
398.935
398.713
398.494
398.279
398.066
397.857
397.651
397.448
397.249
397.054
396.863
396.674
396.489
396.305
396.122
395.938
395.75
395.554
395.343
395.112
394.85
394.547
394.192
393.769
393.265
392.662
392.186
391.579
390.818
389.887
388.786
400
400
400
400
400
399.81
399.601
399.382
399.159
398.936
398.714
398.494
398.278
398.065
397.855
397.648
397.445
397.245
397.049
396.857
396.667
396.481
396.296
396.113
395.927
395.738
395.541
395.329
395.095
394.832
394.526
394.168
393.743
393.235
392.63
392.151
391.542
390.779
389.848
388.746
400
400
400
400
400
399.811
399.602
399.383
399.159
398.934
398.709
398.487
398.268
398.051
397.837
397.626
397.418
397.213
397.012
396.815
396.621
396.43
396.242
396.056
395.869
395.677
395.477
395.263
395.027
394.76
394.451
394.088
393.657
393.144
392.532
392.048
391.433
390.663
389.724
388.614
400
400
400
400
400
399.806
399.591
399.364
399.129
398.892
398.655
398.418
398.183
397.949
397.717
397.488
397.26
397.035
396.813
396.595
396.379
396.167
395.957
395.748
395.539
395.326
395.104
394.866
394.603
394.303
393.956
393.547
393.061
392.485
391.802
391.261
390.58
389.738
388.72
387.532
400
400
400
400
399.999
399.774
399.52
399.248
398.968
398.682
398.395
398.107
397.819
397.533
397.247
396.963
396.681
396.4
396.122
395.846
395.572
395.297
395.022
394.742
394.453
394.149
393.819
393.455
393.042
392.566
392.011
391.359
390.594
389.698
388.661
387.876
386.9
385.719
384.336
382.781
400
400
400
400
400
399.858
399.696
399.515
399.318
399.108
398.886
398.656
398.419
398.176
397.929
397.678
397.426
397.172
396.917
396.662
396.407
396.15
395.892
395.63
395.36
395.079
394.779
394.452
394.087
393.672
393.192
392.632
391.975
391.204
390.305
389.525
388.593
387.493
386.218
384.778
400
400
400
400
400
399.878
399.742
399.593
399.433
399.264
399.088
398.906
398.72
398.529
398.337
398.142
397.946
397.75
397.554
397.359
397.165
396.972
396.781
396.59
396.399
396.205
396.006
395.797
395.57
395.318
395.028
394.692
394.295
393.823
393.263
392.759
392.141
391.391
390.495
389.448
400
400
400
400
400
399.881
399.749
399.606
399.454
399.295
399.129
398.96
398.788
398.613
398.437
398.26
398.083
397.906
397.73
397.556
397.384
397.213
397.044
396.875
396.707
396.536
396.359
396.172
395.97
395.744
395.488
395.189
394.837
394.418
393.917
393.467
392.909
392.224
391.399
390.423
400
400
400
400
400
399.88
399.748
399.606
399.455
399.296
399.133
398.966
398.797
398.625
398.453
398.28
398.107
397.935
397.764
397.595
397.427
397.261
397.095
396.93
396.765
396.596
396.421
396.236
396.036
395.813
395.558
395.263
394.914
394.499
394.003
393.556
393.002
392.323
391.504
390.534
400
400
400
400
400
399.88
399.748
399.606
399.454
399.296
399.133
398.967
398.798
398.627
398.455
398.283
398.111
397.94
397.77
397.602
397.435
397.27
397.106
396.942
396.777
396.609
396.436
396.252
396.053
395.832
395.58
395.287
394.941
394.529
394.035
393.591
393.039
392.361
391.543
390.574
400
400
400
400
400
399.88
399.747
399.604
399.452
399.293
399.13
398.962
398.793
398.621
398.449
398.277
398.105
397.933
397.763
397.595
397.428
397.262
397.098
396.934
396.769
396.601
396.427
396.243
396.044
395.823
395.57
395.277
394.93
394.518
394.024
393.579
393.027
392.349
391.53
390.561
400
400
400
400
400
399.88
399.747
399.604
399.451
399.292
399.128
398.961
398.791
398.619
398.447
398.274
398.102
397.93
397.76
397.591
397.424
397.259
397.094
396.93
396.766
396.598
396.424
396.242
396.043
395.823
395.572
395.28
394.935
394.524
394.033
393.59
393.039
392.362
391.545
390.577
400
400
400
400
400
399.879
399.746
399.602
399.45
399.29
399.126
398.958
398.787
398.615
398.442
398.268
398.096
397.924
397.753
397.584
397.417
397.251
397.086
396.922
396.757
396.589
396.416
396.232
396.034
395.814
395.563
395.271
394.926
394.516
394.024
393.582
393.031
392.355
391.538
390.571
400
400
400
400
400
399.879
399.746
399.602
399.449
399.289
399.125
398.956
398.785
398.613
398.44
398.266
398.093
397.921
397.75
397.581
397.413
397.247
397.083
396.919
396.754
396.586
396.413
396.23
396.033
395.813
395.563
395.272
394.929
394.52
394.031
393.589
393.04
392.366
391.55
390.584
400
400
400
400
400
399.879
399.746
399.601
399.448
399.288
399.123
398.954
398.783
398.61
398.436
398.263
398.089
397.917
397.745
397.576
397.408
397.242
397.077
396.912
396.747
396.58
396.407
396.224
396.026
395.807
395.557
395.267
394.924
394.516
394.027
393.587
393.038
392.365
391.55
390.585
400
400
400
400
400
399.879
399.746
399.601
399.448
399.287
399.122
398.953
398.782
398.609
398.435
398.261
398.088
397.915
397.743
397.573
397.405
397.239
397.074
396.909
396.745
396.577
396.404
396.222
396.025
395.806
395.557
395.268
394.927
394.52
394.032
393.593
393.047
392.375
391.562
390.598
400
400
400
400
400
399.879
399.745
399.601
399.447
399.287
399.121
398.952
398.78
398.607
398.433
398.259
398.085
397.912
397.74
397.57
397.402
397.235
397.07
396.905
396.741
396.573
396.4
396.218
396.021
395.803
395.555
395.266
394.925
394.519
394.033
393.595
393.05
392.379
391.567
390.605
400
400
400
400
400
399.879
399.745
399.601
399.447
399.286
399.121
398.951
398.78
398.606
398.432
398.258
398.084
397.911
397.739
397.569
397.401
397.234
397.069
396.905
396.74
396.573
396.4
396.218
396.022
395.804
395.556
395.268
394.929
394.524
394.039
393.603
393.059
392.39
391.579
390.618
400
400
400
400
400
399.879
399.745
399.601
399.447
399.286
399.12
398.951
398.779
398.606
398.431
398.257
398.083
397.91
397.738
397.568
397.4
397.233
397.068
396.904
396.739
396.572
396.399
396.218
396.022
395.804
395.557
395.269
394.931
394.527
394.043
393.608
393.065
392.398
391.589
390.629
400
400
400
400
400
399.879
399.746
399.601
399.447
399.286
399.12
398.951
398.779
398.605
398.431
398.257
398.083
397.91
397.738
397.568
397.4
397.233
397.068
396.904
396.739
396.572
396.4
396.218
396.023
395.806
395.559
395.272
394.934
394.531
394.048
393.614
393.073
392.407
391.599
390.641
400
400
400
400
400
399.879
399.746
399.601
399.447
399.286
399.12
398.951
398.779
398.605
398.431
398.257
398.083
397.91
397.738
397.568
397.4
397.233
397.068
396.904
396.739
396.572
396.4
396.219
396.023
395.806
395.559
395.272
394.934
394.531
394.048
393.614
393.073
392.406
391.598
390.64
400
400
400
400
400
399.879
399.746
399.601
399.447
399.286
399.12
398.951
398.779
398.606
398.431
398.257
398.083
397.91
397.738
397.568
397.4
397.234
397.068
396.904
396.739
396.572
396.399
396.218
396.022
395.804
395.557
395.269
394.93
394.526
394.042
393.607
393.064
392.396
391.587
390.627
400
400
400
400
400
399.879
399.746
399.601
399.447
399.287
399.121
398.952
398.78
398.606
398.432
398.258
398.084
397.911
397.739
397.569
397.401
397.235
397.069
396.905
396.74
396.573
396.4
396.218
396.022
395.804
395.556
395.268
394.928
394.523
394.037
393.601
393.057
392.387
391.577
390.615
400
400
400
400
400
399.879
399.746
399.601
399.448
399.287
399.122
398.952
398.781
398.607
398.433
398.259
398.085
397.912
397.74
397.57
397.402
397.235
397.07
396.906
396.741
396.573
396.401
396.218
396.021
395.803
395.554
395.265
394.924
394.518
394.031
393.593
393.047
392.376
391.564
390.601
400
400
400
400
400
399.879
399.746
399.602
399.448
399.288
399.123
398.954
398.782
398.609
398.435
398.261
398.088
397.915
397.744
397.574
397.406
397.239
397.074
396.91
396.745
396.577
396.404
396.222
396.025
395.806
395.557
395.267
394.926
394.518
394.03
393.591
393.044
392.371
391.558
390.593
400
400
400
400
400
399.879
399.746
399.602
399.449
399.289
399.123
398.955
398.783
398.61
398.437
398.263
398.09
397.917
397.746
397.576
397.408
397.242
397.077
396.913
396.748
396.58
396.407
396.224
396.026
395.807
395.557
395.266
394.923
394.514
394.024
393.583
393.035
392.361
391.546
390.58
400
400
400
400
400
399.88
399.747
399.603
399.45
399.29
399.125
398.957
398.786
398.613
398.44
398.267
398.094
397.922
397.751
397.581
397.414
397.248
397.083
396.919
396.754
396.586
396.413
396.23
396.032
395.813
395.562
395.271
394.928
394.518
394.028
393.586
393.036
392.361
391.545
390.578
400
400
400
400
400
399.88
399.747
399.603
399.45
399.291
399.126
398.958
398.788
398.615
398.442
398.269
398.096
397.924
397.754
397.584
397.417
397.251
397.086
396.922
396.757
396.589
396.416
396.232
396.034
395.813
395.562
395.27
394.925
394.513
394.021
393.578
393.027
392.35
391.532
390.564
400
400
400
400
400
399.88
399.747
399.604
399.452
399.293
399.129
398.962
398.792
398.62
398.447
398.274
398.102
397.931
397.76
397.592
397.424
397.259
397.095
396.931
396.766
396.598
396.424
396.241
396.043
395.822
395.571
395.279
394.933
394.522
394.029
393.586
393.034
392.357
391.539
390.57
400
400
400
400
400
399.88
399.748
399.605
399.453
399.294
399.13
398.963
398.793
398.622
398.45
398.277
398.105
397.934
397.764
397.595
397.428
397.263
397.098
396.934
396.769
396.601
396.427
396.243
396.044
395.822
395.569
395.275
394.929
394.515
394.021
393.576
393.022
392.344
391.524
390.555
400
400
400
400
400
399.881
399.749
399.606
399.455
399.297
399.134
398.967
398.798
398.627
398.455
398.283
398.111
397.94
397.771
397.602
397.435
397.27
397.106
396.942
396.777
396.609
396.436
396.252
396.053
395.832
395.579
395.286
394.939
394.526
394.032
393.587
393.035
392.356
391.537
390.568
400
400
400
400
400
399.881
399.749
399.606
399.455
399.297
399.134
398.967
398.797
398.626
398.453
398.28
398.108
397.936
397.765
397.595
397.427
397.261
397.096
396.931
396.765
396.596
396.421
396.236
396.035
395.812
395.558
395.262
394.913
394.497
394
393.553
392.998
392.319
391.498
390.528
400
400
400
400
400
399.881
399.749
399.607
399.455
399.295
399.13
398.961
398.788
398.614
398.438
398.261
398.083
397.907
397.731
397.557
397.384
397.213
397.044
396.876
396.707
396.536
396.359
396.172
395.969
395.744
395.487
395.188
394.836
394.416
393.915
393.464
392.905
392.22
391.394
390.417
400
400
400
400
400
399.878
399.742
399.594
399.434
399.265
399.089
398.907
398.72
398.53
398.337
398.143
397.947
397.75
397.554
397.359
397.165
396.972
396.781
396.59
396.399
396.206
396.007
395.797
395.57
395.317
395.028
394.691
394.294
393.822
393.261
392.757
392.139
391.389
390.492
389.444
400
400
400
400
400
399.859
399.697
399.516
399.319
399.108
398.887
398.657
398.419
398.176
397.929
397.679
397.427
397.173
396.918
396.663
396.407
396.151
395.892
395.63
395.361
395.08
394.78
394.453
394.089
393.674
393.195
392.636
391.98
391.21
390.312
389.534
388.604
387.507
386.234
384.797
400
400
400
400
400
399.892
399.772
399.641
399.498
399.345
399.182
399.009
398.827
398.637
398.441
398.239
398.031
397.819
397.603
397.384
397.162
396.938
396.71
396.478
396.24
395.993
395.733
395.454
395.148
394.804
394.412
393.958
393.428
392.804
392.072
391.411
390.612
389.66
388.547
387.273
400
400
400
400
400
399.906
399.805
399.696
399.581
399.458
399.33
399.196
399.056
398.912
398.764
398.612
398.456
398.299
398.139
397.978
397.817
397.655
397.493
397.33
397.167
397.002
396.833
396.658
396.472
396.269
396.042
395.78
395.475
395.113
394.682
394.286
393.793
393.187
392.453
391.584
400
400
400
400
400
399.908
399.809
399.705
399.595
399.48
399.36
399.235
399.107
398.975
398.841
398.704
398.565
398.424
398.283
398.142
398
397.859
397.718
397.577
397.435
397.293
397.146
396.993
396.829
396.65
396.449
396.218
395.948
395.627
395.243
394.891
394.447
393.897
393.224
392.419
400
400
400
400
400
399.907
399.809
399.705
399.596
399.481
399.363
399.24
399.114
398.985
398.853
398.72
398.585
398.449
398.312
398.175
398.038
397.901
397.764
397.627
397.489
397.349
397.204
397.053
396.891
396.713
396.514
396.285
396.016
395.698
395.317
394.967
394.526
393.979
393.311
392.51
400
400
400
400
400
399.907
399.809
399.705
399.596
399.481
399.363
399.24
399.115
398.986
398.855
398.722
398.588
398.453
398.317
398.181
398.046
397.91
397.774
397.638
397.501
397.362
397.219
397.069
396.908
396.732
396.535
396.307
396.041
395.725
395.347
394.999
394.56
394.014
393.348
392.547
400
400
400
400
400
399.907
399.808
399.704
399.594
399.479
399.36
399.237
399.111
398.982
398.851
398.718
398.583
398.448
398.312
398.176
398.04
397.904
397.768
397.632
397.495
397.355
397.211
397.061
396.9
396.724
396.526
396.298
396.032
395.715
395.336
394.987
394.548
394.002
393.335
392.534
400
400
400
400
400
399.907
399.808
399.704
399.593
399.478
399.359
399.236
399.11
398.981
398.849
398.716
398.581
398.445
398.309
398.173
398.037
397.901
397.765
397.629
397.492
397.353
397.21
397.06
396.9
396.724
396.527
396.301
396.036
395.721
395.343
394.996
394.558
394.014
393.348
392.549
400
400
400
400
400
399.907
399.808
399.703
399.592
399.477
399.357
399.234
399.107
398.977
398.845
398.712
398.576
398.44
398.304
398.167
398.031
397.895
397.758
397.622
397.485
397.345
397.202
397.052
396.892
396.716
396.519
396.292
396.027
395.712
395.335
394.988
394.55