/*--------------------------------*- C++ -*----------------------------------*\
| =========                 |                                                 |
| \\      /  F ield         | OpenFOAM: The Open Source CFD Toolbox           |
|  \\    /   O peration     | Version:  v1806                                 |
|   \\  /    A nd           | Web:      www.OpenFOAM.com                      |
|    \\/     M anipulation  |                                                 |
\*---------------------------------------------------------------------------*/
FoamFile
{
    version     2.0;
    format      ascii;
    class       volVectorField;
    location    "150/porous";
    object      U;
}
// * * * * * * * * * * * * * * * * * * * * * * * * * * * * * * * * * * * * * //

dimensions      [0 1 -1 0 0 0 0];


internalField   nonuniform List<vector> 
36000
(
(0.00555056 7.02127e-05 0.000289042)
(0.00340903 4.42548e-05 6.71224e-05)
(0.00220329 3.69638e-05 1.37094e-05)
(0.00180686 3.07684e-05 1.60337e-06)
(0.00158038 2.55943e-05 1.93793e-07)
(0.00143087 2.16608e-05 -4.35509e-08)
(0.00131992 1.86587e-05 -9.90889e-08)
(0.00123222 1.63208e-05 -1.35475e-07)
(0.00116053 1.44498e-05 -1.59715e-07)
(0.00110043 1.29185e-05 -1.72508e-07)
(0.00104909 1.16431e-05 -1.77522e-07)
(0.0010046 1.05675e-05 -1.77551e-07)
(0.00096558 9.65299e-06 -1.74699e-07)
(0.000931061 8.87129e-06 -1.7045e-07)
(0.00090031 8.19947e-06 -1.65699e-07)
(0.000872784 7.61661e-06 -1.60807e-07)
(0.000848072 7.10216e-06 -1.556e-07)
(0.000825861 6.63594e-06 -1.49524e-07)
(0.000805906 6.19955e-06 -1.41824e-07)
(0.00078801 5.77837e-06 -1.31823e-07)
(0.000772012 5.36327e-06 -1.19202e-07)
(0.000757772 4.95142e-06 -1.04156e-07)
(0.000745168 4.54567e-06 -8.74654e-08)
(0.000734096 4.15283e-06 -7.03444e-08)
(0.000724461 3.77875e-06 -5.41791e-08)
(0.00071618 3.42433e-06 -4.01019e-08)
(0.000709174 3.08696e-06 -2.88209e-08)
(0.000703367 2.76264e-06 -2.07079e-08)
(0.000698694 2.4476e-06 -1.52965e-08)
(0.000695063 2.14728e-06 -1.19807e-08)
(0.000692308 1.87049e-06 -1.08263e-08)
(0.000690277 1.62035e-06 -1.17146e-08)
(0.000688829 1.39729e-06 -1.38069e-08)
(0.000687841 1.19777e-06 -1.60853e-08)
(0.000687193 1.01896e-06 -1.79785e-08)
(0.000686811 8.61135e-07 -1.97569e-08)
(0.000686554 7.16873e-07 -1.95806e-08)
(0.000686526 5.88372e-07 -2.1529e-08)
(0.000686234 4.74779e-07 -1.55202e-08)
(0.0006868 1.22077e-07 -2.55722e-08)
(0.00562429 8.38018e-05 0.000295874)
(0.00352515 5.57857e-05 6.94443e-05)
(0.00238476 4.95059e-05 1.59396e-05)
(0.00202138 4.17581e-05 3.37246e-06)
(0.00182313 3.58419e-05 1.57101e-06)
(0.00169624 3.13317e-05 1.11428e-06)
(0.00160361 2.77803e-05 9.06794e-07)
(0.00153095 2.49108e-05 7.56915e-07)
(0.00147178 2.25207e-05 6.43306e-07)
(0.0014222 2.04845e-05 5.58048e-07)
(0.00137978 1.87206e-05 4.92875e-07)
(0.00134291 1.71738e-05 4.41955e-07)
(0.00131047 1.58034e-05 4.01222e-07)
(0.00128169 1.45744e-05 3.67875e-07)
(0.00125602 1.34505e-05 3.40086e-07)
(0.00123309 1.23906e-05 3.16777e-07)
(0.00121263 1.1348e-05 2.97474e-07)
(0.00119445 1.02735e-05 2.82166e-07)
(0.00117842 9.12299e-06 2.71083e-07)
(0.00116438 7.86505e-06 2.64482e-07)
(0.00115223 6.48923e-06 2.62371e-07)
(0.00114181 5.0105e-06 2.64289e-07)
(0.00113301 3.46899e-06 2.69e-07)
(0.00112569 1.92385e-06 2.75399e-07)
(0.00111974 4.47453e-07 2.82264e-07)
(0.00111501 -8.81922e-07 2.87263e-07)
(0.00111133 -1.99553e-06 2.88198e-07)
(0.00110854 -2.8479e-06 2.83756e-07)
(0.00110648 -3.42113e-06 2.72828e-07)
(0.001105 -3.71971e-06 2.55137e-07)
(0.00110405 -3.77021e-06 2.32299e-07)
(0.00110354 -3.61733e-06 2.06451e-07)
(0.00110339 -3.31458e-06 1.79163e-07)
(0.00110351 -2.91753e-06 1.5172e-07)
(0.00110381 -2.47395e-06 1.25714e-07)
(0.00110423 -2.011e-06 1.01414e-07)
(0.00110464 -1.57014e-06 8.00825e-08)
(0.00110517 -1.11754e-06 5.75083e-08)
(0.00110521 -7.98926e-07 4.99456e-08)
(0.00110619 -2.22308e-07 -3.71871e-08)
(0.00561665 4.31984e-05 0.000294818)
(0.00351435 3.87546e-05 6.83114e-05)
(0.00239038 3.89913e-05 1.53282e-05)
(0.00203483 3.50471e-05 2.96224e-06)
(0.00184471 3.11651e-05 1.2685e-06)
(0.00172533 2.78103e-05 8.86511e-07)
(0.0016397 2.49065e-05 7.2201e-07)
(0.00157365 2.24187e-05 5.97901e-07)
(0.00152074 2.02723e-05 5.00014e-07)
(0.00147711 1.84047e-05 4.24549e-07)
(0.00144035 1.67641e-05 3.65733e-07)
(0.00140885 1.53079e-05 3.19253e-07)
(0.00138151 1.39973e-05 2.8195e-07)
(0.00135756 1.27926e-05 2.51549e-07)
(0.00133645 1.16487e-05 2.26384e-07)
(0.00131781 1.05134e-05 2.0525e-07)
(0.00130134 9.32905e-06 1.87301e-07)
(0.00128684 8.03863e-06 1.71967e-07)
(0.00127413 6.59513e-06 1.58872e-07)
(0.00126304 4.9727e-06 1.4773e-07)
(0.00125339 3.17618e-06 1.38238e-07)
(0.001245 1.2462e-06 1.29926e-07)
(0.00123771 -7.42311e-07 1.22471e-07)
(0.00123134 -2.68784e-06 1.14766e-07)
(0.00122571 -4.47442e-06 1.05437e-07)
(0.00122073 -5.98924e-06 9.42787e-08)
(0.00121634 -7.14254e-06 8.1491e-08)
(0.00121252 -7.88164e-06 6.73813e-08)
(0.00120926 -8.1955e-06 5.26912e-08)
(0.00120653 -8.11524e-06 3.83163e-08)
(0.0012043 -7.70491e-06 2.49055e-08)
(0.00120256 -7.04594e-06 1.30036e-08)
(0.00120123 -6.22499e-06 3.02756e-09)
(0.00120027 -5.32222e-06 -4.86646e-09)
(0.0011996 -4.40735e-06 -1.06296e-08)
(0.00119917 -3.52129e-06 -1.43077e-08)
(0.0011989 -2.71597e-06 -1.52776e-08)
(0.00119879 -1.92641e-06 -1.57955e-08)
(0.00119861 -1.40429e-06 -1.16043e-08)
(0.00119891 -1.89207e-07 -1.90901e-08)
(0.00560903 3.72178e-05 0.000295464)
(0.00349577 4.1668e-05 6.89141e-05)
(0.00237452 4.09004e-05 1.5737e-05)
(0.00202133 3.65948e-05 3.2587e-06)
(0.00183431 3.22524e-05 1.48093e-06)
(0.00171797 2.84839e-05 1.04276e-06)
(0.0016352 2.52683e-05 8.38373e-07)
(0.00157185 2.25603e-05 6.87336e-07)
(0.00152147 2.02682e-05 5.71431e-07)
(0.00148024 1.83085e-05 4.83812e-07)
(0.00144576 1.66116e-05 4.16716e-07)
(0.00141644 1.51201e-05 3.64491e-07)
(0.00139117 1.3784e-05 3.2308e-07)
(0.00136919 1.25557e-05 2.89569e-07)
(0.00134993 1.13861e-05 2.61852e-07)
(0.001333 1.0223e-05 2.38389e-07)
(0.00131808 9.01256e-06 2.18076e-07)
(0.00130493 7.70481e-06 2.00151e-07)
(0.00129334 6.26144e-06 1.84148e-07)
(0.00128311 4.66531e-06 1.69804e-07)
(0.00127406 2.92814e-06 1.57006e-07)
(0.001266 1.09408e-06 1.45713e-07)
(0.00125877 -7.62979e-07 1.35774e-07)
(0.00125223 -2.54719e-06 1.27029e-07)
(0.00124628 -4.1558e-06 1.19291e-07)
(0.00124086 -5.49744e-06 1.12315e-07)
(0.00123594 -6.50489e-06 1.05764e-07)
(0.00123152 -7.14183e-06 9.93326e-08)
(0.00122763 -7.4063e-06 9.27983e-08)
(0.00122426 -7.32854e-06 8.60203e-08)
(0.00122142 -6.96341e-06 7.89262e-08)
(0.0012191 -6.38047e-06 7.15577e-08)
(0.00121726 -5.65355e-06 6.40488e-08)
(0.00121585 -4.85099e-06 5.65559e-08)
(0.00121481 -4.03346e-06 4.92226e-08)
(0.00121409 -3.23907e-06 4.2037e-08)
(0.00121359 -2.51518e-06 3.53241e-08)
(0.00121329 -1.80362e-06 2.84785e-08)
(0.00121309 -1.30372e-06 2.14318e-08)
(0.00121291 -3.33966e-07 1.96883e-08)
(0.00560508 2.48871e-05 0.00029527)
(0.00348634 3.19092e-05 6.8561e-05)
(0.00236678 3.2994e-05 1.53586e-05)
(0.00201478 3.08444e-05 2.95256e-06)
(0.00182897 2.80093e-05 1.23555e-06)
(0.00171363 2.52284e-05 8.4536e-07)
(0.00163168 2.26596e-05 6.76093e-07)
(0.00156903 2.03713e-05 5.50902e-07)
(0.00151929 1.8355e-05 4.54048e-07)
(0.00147866 1.65804e-05 3.80447e-07)
(0.00144475 1.50114e-05 3.23727e-07)
(0.00141598 1.3611e-05 2.79256e-07)
(0.00139125 1.23419e-05 2.43705e-07)
(0.00136979 1.11653e-05 2.14683e-07)
(0.00135103 1.00387e-05 1.90422e-07)
(0.00133456 8.91645e-06 1.69581e-07)
(0.00132005 7.75172e-06 1.51125e-07)
(0.00130725 6.50132e-06 1.34293e-07)
(0.00129596 5.13295e-06 1.18548e-07)
(0.00128597 3.63293e-06 1.0355e-07)
(0.0012771 2.01261e-06 8.91329e-08)
(0.00126919 3.11296e-07 7.5246e-08)
(0.00126208 -1.40574e-06 6.18965e-08)
(0.00125566 -3.05502e-06 4.91173e-08)
(0.00124983 -4.54657e-06 3.70195e-08)
(0.00124452 -5.79705e-06 2.57074e-08)
(0.00123971 -6.74179e-06 1.5313e-08)
(0.00123539 -7.3435e-06 6.0052e-09)
(0.00123155 -7.59628e-06 -2.0762e-09)
(0.00122819 -7.52435e-06 -8.81521e-09)
(0.00122531 -7.17531e-06 -1.41394e-08)
(0.0012229 -6.61135e-06 -1.80663e-08)
(0.00122093 -5.90049e-06 -2.08036e-08)
(0.00121936 -5.10728e-06 -2.22221e-08)
(0.00121814 -4.28879e-06 -2.22299e-08)
(0.00121723 -3.48246e-06 -2.12151e-08)
(0.00121656 -2.73242e-06 -1.94384e-08)
(0.00121607 -2.00052e-06 -1.65641e-08)
(0.00121584 -1.43299e-06 -1.54055e-08)
(0.00121544 -5.78689e-07 7.6048e-09)
(0.005603 2.06429e-05 0.000295425)
(0.00348001 3.00619e-05 6.88203e-05)
(0.0023591 3.20564e-05 1.56022e-05)
(0.00200672 3.05751e-05 3.17461e-06)
(0.00182116 2.80179e-05 1.42761e-06)
(0.0017063 2.52861e-05 1.00842e-06)
(0.00162491 2.26788e-05 8.13468e-07)
(0.00156284 2.03245e-05 6.67048e-07)
(0.00151365 1.82454e-05 5.53198e-07)
(0.00147352 1.64228e-05 4.6613e-07)
(0.00144008 1.48227e-05 3.98775e-07)
(0.00141173 1.34068e-05 3.45881e-07)
(0.00138739 1.21358e-05 3.03622e-07)
(0.00136628 1.09695e-05 2.69215e-07)
(0.00134783 9.86675e-06 2.40591e-07)
(0.00133163 8.78503e-06 2.16205e-07)
(0.00131735 7.68277e-06 1.9489e-07)
(0.00130476 6.52305e-06 1.75795e-07)
(0.00129364 5.27902e-06 1.58356e-07)
(0.0012838 3.93972e-06 1.42246e-07)
(0.00127507 2.51474e-06 1.27341e-07)
(0.0012673 1.0361e-06 1.13629e-07)
(0.00126036 -4.44128e-07 1.01191e-07)
(0.00125411 -1.85991e-06 9.01271e-08)
(0.00124847 -3.14024e-06 8.04667e-08)
(0.00124337 -4.21972e-06 7.21714e-08)
(0.00123877 -5.04805e-06 6.50964e-08)
(0.00123464 -5.59663e-06 5.90557e-08)
(0.00123098 -5.86114e-06 5.3839e-08)
(0.00122778 -5.86026e-06 4.92264e-08)
(0.00122504 -5.63115e-06 4.50182e-08)
(0.00122274 -5.22261e-06 4.10643e-08)
(0.00122085 -4.68815e-06 3.72473e-08)
(0.00121933 -4.07867e-06 3.35127e-08)
(0.00121815 -3.44018e-06 2.98217e-08)
(0.00121726 -2.80441e-06 2.62015e-08)
(0.00121662 -2.20514e-06 2.24883e-08)
(0.00121613 -1.62458e-06 1.94703e-08)
(0.00121594 -1.14216e-06 1.26713e-08)
(0.00121541 -5.67096e-07 2.62753e-08)
(0.00560161 1.56278e-05 0.000295385)
(0.00347577 2.40835e-05 6.87263e-05)
(0.00235408 2.62743e-05 1.54538e-05)
(0.00200186 2.55895e-05 3.02374e-06)
(0.00181672 2.38327e-05 1.28812e-06)
(0.00170234 2.1766e-05 8.83529e-07)
(0.00162138 1.96924e-05 7.03308e-07)
(0.00155968 1.77551e-05 5.70454e-07)
(0.00151079 1.60013e-05 4.68476e-07)
(0.00147092 1.44345e-05 3.91463e-07)
(0.00143767 1.30384e-05 3.32465e-07)
(0.00140949 1.17883e-05 2.86461e-07)
(0.00138529 1.06554e-05 2.49853e-07)
(0.00136429 9.60813e-06 2.2007e-07)
(0.00134593 8.61281e-06 1.95228e-07)
(0.0013298 7.63428e-06 1.73897e-07)
(0.00131559 6.63788e-06 1.55009e-07)
(0.00130305 5.5928e-06 1.37748e-07)
(0.00129199 4.47668e-06 1.21568e-07)
(0.00128221 3.28034e-06 1.06127e-07)
(0.00127357 2.01165e-06 9.12726e-08)
(0.00126592 6.97117e-07 7.69853e-08)
(0.00125913 -6.19712e-07 6.33487e-08)
(0.00125307 -1.88294e-06 5.04994e-08)
(0.00124765 -3.03178e-06 3.85806e-08)
(0.0012428 -4.00927e-06 2.77359e-08)
(0.00123846 -4.7702e-06 1.8075e-08)
(0.00123459 -5.2869e-06 9.67739e-09)
(0.00123117 -5.5523e-06 2.5967e-09)
(0.00122818 -5.57917e-06 -3.16231e-09)
(0.0012256 -5.39678e-06 -7.63362e-09)
(0.00122342 -5.0455e-06 -1.09036e-08)
(0.0012216 -4.57092e-06 -1.3159e-08)
(0.00122012 -4.01791e-06 -1.44738e-08)
(0.00121894 -3.42746e-06 -1.47823e-08)
(0.00121802 -2.83005e-06 -1.4233e-08)
(0.00121734 -2.25452e-06 -1.33315e-08)
(0.0012168 -1.70031e-06 -1.1247e-08)
(0.00121657 -1.20201e-06 -1.15202e-08)
(0.00121604 -7.05394e-07 8.84265e-09)
(0.00560094 1.28857e-05 0.000295428)
(0.00347324 2.1061e-05 6.88154e-05)
(0.00235028 2.37304e-05 1.55517e-05)
(0.00199752 2.3662e-05 3.12787e-06)
(0.00181221 2.23839e-05 1.39145e-06)
(0.00169789 2.06317e-05 9.80991e-07)
(0.00161708 1.87592e-05 7.92705e-07)
(0.0015556 1.69488e-05 6.5122e-07)
(0.00150694 1.52784e-05 5.40958e-07)
(0.00146729 1.37713e-05 4.56396e-07)
(0.00143426 1.24234e-05 3.90747e-07)
(0.00140628 1.12172e-05 3.38988e-07)
(0.00138225 1.01282e-05 2.9747e-07)
(0.00136141 9.12852e-06 2.63531e-07)
(0.00134319 8.18805e-06 2.35202e-07)
(0.00132718 7.27578e-06 2.10979e-07)
(0.00131307 6.36168e-06 1.8973e-07)
(0.00130062 5.41948e-06 1.70613e-07)
(0.00128964 4.43021e-06 1.53052e-07)
(0.00127996 3.38588e-06 1.36702e-07)
(0.00127142 2.29229e-06 1.21413e-07)
(0.00126388 1.17007e-06 1.07176e-07)
(0.00125722 5.31781e-08 9.40675e-08)
(0.00125131 -1.01496e-06 8.21919e-08)
(0.00124607 -1.98723e-06 7.16598e-08)
(0.00124141 -2.81931e-06 6.2468e-08)
(0.00123727 -3.47593e-06 5.45756e-08)
(0.0012336 -3.9356e-06 4.78868e-08)
(0.00123037 -4.19263e-06 4.22386e-08)
(0.00122754 -4.25681e-06 3.7463e-08)
(0.00122512 -4.15069e-06 3.33702e-08)
(0.00122305 -3.90563e-06 2.97949e-08)
(0.00122134 -3.55718e-06 2.6596e-08)
(0.00121993 -3.14065e-06 2.36658e-08)
(0.00121881 -2.68838e-06 2.0915e-08)
(0.00121793 -2.22554e-06 1.83643e-08)
(0.00121728 -1.77317e-06 1.57402e-08)
(0.00121675 -1.34067e-06 1.37995e-08)
(0.00121653 -9.32903e-07 8.81153e-09)
(0.00121596 -5.89667e-07 2.03272e-08)
(0.00560043 1.01737e-05 0.000295418)
(0.00347131 1.70108e-05 6.87909e-05)
(0.0023474 1.94187e-05 1.54997e-05)
(0.00199439 1.95624e-05 3.06469e-06)
(0.00180912 1.86514e-05 1.32495e-06)
(0.00169498 1.72855e-05 9.14653e-07)
(0.00161441 1.57768e-05 7.28948e-07)
(0.00155317 1.429e-05 5.91402e-07)
(0.00150474 1.29006e-05 4.85655e-07)
(0.00146528 1.16357e-05 4.05696e-07)
(0.00143242 1.04965e-05 3.44441e-07)
(0.00140457 9.47107e-06 2.96731e-07)
(0.00138065 8.54076e-06 2.58838e-07)
(0.00135989 7.68314e-06 2.28097e-07)
(0.00134174 6.87364e-06 2.0254e-07)
(0.00132578 6.08683e-06 1.80686e-07)
(0.00131171 5.29798e-06 1.61406e-07)
(0.0012993 4.48548e-06 1.43868e-07)
(0.00128835 3.6337e-06 1.27488e-07)
(0.00127871 2.73594e-06 1.11916e-07)
(0.00127022 1.79675e-06 9.69911e-08)
(0.00126277 8.32811e-07 8.26973e-08)
(0.00125621 -1.28075e-07 6.91223e-08)
(0.00125044 -1.04992e-06 5.64067e-08)
(0.00124535 -1.89319e-06 4.47046e-08)
(0.00124087 -2.62022e-06 3.41376e-08)
(0.00123691 -3.20027e-06 2.4809e-08)
(0.00123342 -3.61365e-06 1.67484e-08)
(0.00123036 -3.85344e-06 9.97006e-09)
(0.00122769 -3.92568e-06 4.42748e-09)
(0.00122539 -3.8475e-06 6.05453e-11)
(0.00122343 -3.64388e-06 -3.23237e-09)
(0.00122178 -3.3442e-06 -5.57291e-09)
(0.00122041 -2.9784e-06 -7.0958e-09)
(0.00121931 -2.5744e-06 -8.00645e-09)
(0.00121842 -2.15546e-06 -8.25275e-09)
(0.00121775 -1.73899e-06 -8.08538e-09)
(0.0012172 -1.34063e-06 -6.99465e-09)
(0.00121695 -9.46881e-07 -7.40229e-09)
(0.00121644 -6.33372e-07 6.54074e-09)
(0.00560017 8.22248e-06 0.00029543)
(0.00347016 1.41086e-05 6.88215e-05)
(0.00234539 1.64726e-05 1.55359e-05)
(0.00199195 1.69015e-05 3.10738e-06)
(0.00180648 1.6349e-05 1.37216e-06)
(0.00169228 1.53125e-05 9.6343e-07)
(0.00161176 1.4081e-05 7.77312e-07)
(0.00155061 1.28184e-05 6.38051e-07)
(0.00150228 1.16091e-05 5.29821e-07)
(0.00146295 1.04903e-05 4.46998e-07)
(0.0014302 9.4725e-06 3.82778e-07)
(0.00140247 8.55131e-06 3.32167e-07)
(0.00137865 7.71411e-06 2.91557e-07)
(0.00135798 6.94374e-06 2.58335e-07)
(0.0013399 6.22054e-06 2.30567e-07)
(0.001324 5.52382e-06 2.06786e-07)
(0.00130999 4.83341e-06 1.85868e-07)
(0.00129763 4.13166e-06 1.66985e-07)
(0.00128674 3.40568e-06 1.49558e-07)
(0.00127715 2.6497e-06 1.33242e-07)
(0.00126873 1.86676e-06 1.17873e-07)
(0.00126135 1.06935e-06 1.03443e-07)
(0.00125488 2.78567e-07 9.00252e-08)
(0.00124922 -4.78279e-07 7.77377e-08)
(0.00124426 -1.17112e-06 6.67035e-08)
(0.0012399 -1.77118e-06 5.69685e-08)
(0.00123608 -2.25493e-06 4.85482e-08)
(0.00123274 -2.60721e-06 4.13705e-08)
(0.00122981 -2.82262e-06 3.53351e-08)
(0.00122727 -2.90569e-06 3.02981e-08)
(0.00122507 -2.86945e-06 2.60974e-08)
(0.0012232 -2.73301e-06 2.25736e-08)
(0.00122163 -2.51893e-06 1.9588e-08)
(0.00122032 -2.25031e-06 1.70198e-08)
(0.00121925 -1.94868e-06 1.47495e-08)
(0.0012184 -1.63265e-06 1.2768e-08)
(0.00121775 -1.31471e-06 1.08357e-08)
(0.00121722 -1.01179e-06 9.3453e-09)
(0.00121695 -7.04479e-07 6.16466e-09)
(0.00121643 -4.83556e-07 1.39752e-08)
(0.00559996 6.37911e-06 0.000295427)
(0.00346924 1.10397e-05 6.88153e-05)
(0.00234381 1.2992e-05 1.55186e-05)
(0.00199008 1.33981e-05 3.08332e-06)
(0.00180451 1.30048e-05 1.34404e-06)
(0.00169035 1.22006e-05 9.32615e-07)
(0.00160992 1.12245e-05 7.45265e-07)
(0.00154891 1.02135e-05 6.05929e-07)
(0.00150073 9.24009e-06 4.98443e-07)
(0.00146153 8.33707e-06 4.16898e-07)
(0.0014289 7.51443e-06 3.54258e-07)
(0.00140127 6.76929e-06 3.05373e-07)
(0.00137753 6.09174e-06 2.66505e-07)
(0.00135693 5.46799e-06 2.34974e-07)
(0.0013389 4.88223e-06 2.08782e-07)
(0.00132305 4.31781e-06 1.86429e-07)
(0.00130907 3.75854e-06 1.66762e-07)
(0.00129673 3.19026e-06 1.48934e-07)
(0.00128587 2.60256e-06 1.32341e-07)
(0.00127631 1.99059e-06 1.16626e-07)
(0.00126793 1.35649e-06 1.01614e-07)
(0.0012606 7.09834e-07 8.72838e-08)
(0.0012542 6.7141e-08 7.37192e-08)
(0.00124862 -5.49912e-07 6.10686e-08)
(0.00124376 -1.11714e-06 4.94745e-08)
(0.00123952 -1.6111e-06 3.90568e-08)
(0.00123582 -2.01225e-06 2.98939e-08)
(0.00123259 -2.30741e-06 2.20094e-08)
(0.00122978 -2.49104e-06 1.53835e-08)
(0.00122734 -2.5656e-06 9.95339e-09)
(0.00122523 -2.54043e-06 5.61972e-09)
(0.00122343 -2.43017e-06 2.27719e-09)
(0.0012219 -2.25253e-06 -2.08996e-10)
(0.00122062 -2.02625e-06 -1.95104e-09)
(0.00121957 -1.76897e-06 -3.10144e-09)
(0.00121872 -1.49667e-06 -3.72155e-09)
(0.00121805 -1.21943e-06 -4.07787e-09)
(0.00121751 -9.53718e-07 -3.84434e-09)
(0.00121723 -6.76962e-07 -4.12105e-09)
(0.00121676 -4.73152e-07 4.63541e-09)
(0.00559985 4.82795e-06 0.00029543)
(0.00346868 8.44885e-06 6.88258e-05)
(0.00234275 1.00849e-05 1.55316e-05)
(0.00198873 1.05274e-05 3.09973e-06)
(0.00180301 1.03314e-05 1.36372e-06)
(0.00168879 9.78191e-06 9.54452e-07)
(0.00160836 9.06783e-06 7.68359e-07)
(0.00154738 8.30213e-06 6.29519e-07)
(0.00149926 7.54805e-06 5.2191e-07)
(0.00146012 6.83732e-06 4.39777e-07)
(0.00142756 6.18236e-06 3.76242e-07)
(0.00139999 5.58427e-06 3.26274e-07)
(0.00137631 5.03767e-06 2.86247e-07)
(0.00135575 4.53348e-06 2.53541e-07)
(0.00133777 4.06059e-06 2.26226e-07)
(0.00132195 3.60696e-06 2.0283e-07)
(0.001308 3.16071e-06 1.82236e-07)
(0.0012957 2.71131e-06 1.63608e-07)
(0.00128485 2.25093e-06 1.46368e-07)
(0.00127533 1.77576e-06 1.30156e-07)
(0.00126699 1.28704e-06 1.14813e-07)
(0.0012597 7.91461e-07 1.00321e-07)
(0.00125336 3.00745e-07 8.67536e-08)
(0.00124786 -1.69629e-07 7.42482e-08)
(0.00124307 -6.02369e-07 6.29242e-08)
(0.00123892 -9.80639e-07 5.2873e-08)
(0.0012353 -1.29036e-06 4.41255e-08)
(0.00123217 -1.52201e-06 3.66405e-08)
(0.00122944 -1.6716e-06 3.03496e-08)
(0.00122708 -1.74088e-06 2.51328e-08)
(0.00122504 -1.73663e-06 2.08467e-08)
(0.0012233 -1.66941e-06 1.73482e-08)
(0.00122182 -1.55205e-06 1.44821e-08)
(0.00122058 -1.39811e-06 1.21374e-08)
(0.00121956 -1.22034e-06 1.01802e-08)
(0.00121872 -1.03051e-06 8.56357e-09)
(0.00121807 -8.35563e-07 7.11992e-09)
(0.00121754 -6.492e-07 5.8811e-09)
(0.00121725 -4.53327e-07 4.07106e-09)
(0.00121677 -3.17892e-07 9.16893e-09)
(0.00559976 3.35108e-06 0.000295428)
(0.00346827 5.87489e-06 6.88239e-05)
(0.00234197 7.04068e-06 1.5526e-05)
(0.00198774 7.35665e-06 3.09125e-06)
(0.00180193 7.21952e-06 1.35304e-06)
(0.00168769 6.82509e-06 9.41824e-07)
(0.0016073 6.31037e-06 7.54329e-07)
(0.00154638 5.75781e-06 6.14656e-07)
(0.00149833 5.21408e-06 5.06688e-07)
(0.00145927 4.7027e-06 4.2458e-07)
(0.00142678 4.23286e-06 3.61356e-07)
(0.00139926 3.80527e-06 3.11897e-07)
(0.00137564 3.41584e-06 2.72501e-07)
(0.00135512 3.05781e-06 2.40495e-07)
(0.00133717 2.72295e-06 2.13891e-07)
(0.00132138 2.40245e-06 1.91187e-07)
(0.00130745 2.08764e-06 1.71236e-07)
(0.00129516 1.77079e-06 1.53174e-07)
(0.00128433 1.4461e-06 1.36405e-07)
(0.00127482 1.11062e-06 1.20555e-07)
(0.00126651 7.6495e-07 1.05449e-07)
(0.00125925 4.13588e-07 9.10663e-08)
(0.00125296 6.46768e-08 7.74826e-08)
(0.0012475 -2.70852e-07 6.48381e-08)
(0.00124277 -5.8058e-07 5.32782e-08)
(0.00123868 -8.52263e-07 4.29219e-08)
(0.00123514 -1.07547e-06 3.38314e-08)
(0.00123207 -1.24283e-06 2.60238e-08)
(0.00122941 -1.35096e-06 1.94634e-08)
(0.00122711 -1.40048e-06 1.40733e-08)
(0.00122512 -1.39572e-06 9.74199e-09)
(0.00122342 -1.34391e-06 6.34737e-09)
(0.00122197 -1.25405e-06 3.75932e-09)
(0.00122075 -1.13588e-06 1.85192e-09)
(0.00121974 -9.9875e-07 4.84583e-10)
(0.00121891 -8.51491e-07 -4.15265e-10)
(0.00121825 -6.99216e-07 -9.95726e-10)
(0.00121772 -5.52206e-07 -1.34725e-09)
(0.00121741 -3.95417e-07 -1.62558e-09)
(0.00121697 -2.78602e-07 3.94285e-09)
(0.00559971 1.99012e-06 0.000295428)
(0.00346803 3.50294e-06 6.88265e-05)
(0.00234151 4.23849e-06 1.553e-05)
(0.00198714 4.46329e-06 3.09679e-06)
(0.00180124 4.41836e-06 1.36012e-06)
(0.00168697 4.21265e-06 9.5004e-07)
(0.00160657 3.92768e-06 7.63396e-07)
(0.00154567 3.61303e-06 6.24302e-07)
(0.00149764 3.29753e-06 5.16627e-07)
(0.00145861 2.99644e-06 4.34572e-07)
(0.00142614 2.71639e-06 3.71207e-07)
(0.00139866 2.45884e-06 3.21472e-07)
(0.00137505 2.22228e-06 2.81709e-07)
(0.00135456 2.00345e-06 2.49281e-07)
(0.00133662 1.79811e-06 2.22242e-07)
(0.00132084 1.60156e-06 1.99115e-07)
(0.00130692 1.40907e-06 1.78765e-07)
(0.00129464 1.21636e-06 1.60354e-07)
(0.00128383 1.02018e-06 1.4329e-07)
(0.00127433 8.18813e-07 1.27208e-07)
(0.00126603 6.12559e-07 1.1193e-07)
(0.00125881 4.03884e-07 9.7443e-08)
(0.00125254 1.97334e-07 8.38233e-08)
(0.00124711 -1.00472e-09 7.12041e-08)
(0.00124243 -1.84191e-07 5.97238e-08)
(0.00123838 -3.45409e-07 4.94798e-08)
(0.00123489 -4.78848e-07 4.05236e-08)
(0.00123187 -5.80443e-07 3.28509e-08)
(0.00122925 -6.48388e-07 2.64023e-08)
(0.00122699 -6.83173e-07 2.10707e-08)
(0.00122504 -6.87338e-07 1.67392e-08)
(0.00122337 -6.65048e-07 1.32565e-08)
(0.00122194 -6.21392e-07 1.04863e-08)
(0.00122074 -5.61885e-07 8.29947e-09)
(0.00121974 -4.91692e-07 6.56938e-09)
(0.00121892 -4.15779e-07 5.21846e-09)
(0.00121827 -3.36914e-07 4.13171e-09)
(0.00121774 -2.61252e-07 3.13418e-09)
(0.00121743 -1.81186e-07 2.19165e-09)
(0.00121698 -1.25712e-07 6.15757e-09)
(0.00559969 6.53497e-07 0.000295425)
(0.00346791 1.14433e-06 6.8825e-05)
(0.00234127 1.38011e-06 1.55283e-05)
(0.00198683 1.44089e-06 3.0945e-06)
(0.0018009 1.41153e-06 1.3572e-06)
(0.00168661 1.32807e-06 9.46391e-07)
(0.00160623 1.21905e-06 7.59152e-07)
(0.00154534 1.10186e-06 6.1964e-07)
(0.00149734 9.8662e-07 5.11705e-07)
(0.00145833 8.78608e-07 4.29524e-07)
(0.00142589 7.79927e-07 3.66148e-07)
(0.00139842 6.90818e-07 3.16491e-07)
(0.00137483 6.10417e-07 2.76863e-07)
(0.00135435 5.37266e-07 2.44617e-07)
(0.00133642 4.69581e-07 2.1778e-07)
(0.00132065 4.05452e-07 1.94868e-07)
(0.00130674 3.4299e-07 1.74739e-07)
(0.00129446 2.80507e-07 1.56531e-07)
(0.00128365 2.16711e-07 1.39652e-07)
(0.00127416 1.50863e-07 1.23722e-07)
(0.00126587 8.29703e-08 1.08565e-07)
(0.00125865 1.38247e-08 9.41589e-08)
(0.0012524 -5.50098e-08 8.05778e-08)
(0.00124699 -1.21382e-07 6.7963e-08)
(0.00124233 -1.82788e-07 5.6445e-08)
(0.00123831 -2.36705e-07 4.61391e-08)
(0.00123484 -2.80927e-07 3.71059e-08)
(0.00123184 -3.13837e-07 2.93593e-08)
(0.00122925 -3.34587e-07 2.2845e-08)
(0.001227 -3.43163e-07 1.74802e-08)
(0.00122507 -3.40311e-07 1.31438e-08)
(0.00122341 -3.27419e-07 9.71091e-09)
(0.001222 -3.06278e-07 7.03698e-09)
(0.0012208 -2.78892e-07 4.99518e-09)
(0.0012198 -2.472e-07 3.4544e-09)
(0.00121898 -2.13117e-07 2.33613e-09)
(0.00121833 -1.77706e-07 1.52317e-09)
(0.0012178 -1.43103e-07 8.10548e-10)
(0.00121748 -1.0557e-07 3.41355e-10)
(0.00121705 -7.45532e-08 4.56355e-09)
(0.00559969 -6.5347e-07 0.000295425)
(0.00346791 -1.14427e-06 6.8825e-05)
(0.00234127 -1.38004e-06 1.55283e-05)
(0.00198683 -1.44079e-06 3.0945e-06)
(0.0018009 -1.41141e-06 1.3572e-06)
(0.00168661 -1.3279e-06 9.46393e-07)
(0.00160623 -1.21883e-06 7.59154e-07)
(0.00154534 -1.10158e-06 6.19639e-07)
(0.00149734 -9.86271e-07 5.11702e-07)
(0.00145833 -8.78162e-07 4.29525e-07)
(0.00142589 -7.79386e-07 3.66151e-07)
(0.00139842 -6.90173e-07 3.1649e-07)
(0.00137483 -6.0969e-07 2.76863e-07)
(0.00135435 -5.365e-07 2.44616e-07)
(0.00133642 -4.68839e-07 2.1778e-07)
(0.00132065 -4.04815e-07 1.94869e-07)
(0.00130674 -3.42555e-07 1.74736e-07)
(0.00129446 -2.80379e-07 1.56528e-07)
(0.00128365 -2.16953e-07 1.39651e-07)
(0.00127416 -1.51516e-07 1.23718e-07)
(0.00126587 -8.40164e-08 1.08563e-07)
(0.00125865 -1.51884e-08 9.41556e-08)
(0.0012524 5.3469e-08 8.05779e-08)
(0.00124699 1.19831e-07 6.79602e-08)
(0.00124233 1.81404e-07 5.64435e-08)
(0.00123831 2.35687e-07 4.61374e-08)
(0.00123484 2.80422e-07 3.71033e-08)
(0.00123184 3.13945e-07 2.93566e-08)
(0.00122925 3.35357e-07 2.28417e-08)
(0.001227 3.44594e-07 1.74784e-08)
(0.00122507 3.42346e-07 1.31445e-08)
(0.00122341 3.29964e-07 9.70878e-09)
(0.001222 3.09194e-07 7.03438e-09)
(0.0012208 2.82035e-07 4.99429e-09)
(0.0012198 2.50432e-07 3.45396e-09)
(0.00121898 2.16286e-07 2.33794e-09)
(0.00121833 1.80725e-07 1.52138e-09)
(0.0012178 1.45763e-07 8.11735e-10)
(0.00121748 1.08027e-07 3.44462e-10)
(0.00121705 7.6127e-08 4.55615e-09)
(0.00559971 -1.99009e-06 0.000295428)
(0.00346803 -3.50289e-06 6.88265e-05)
(0.00234151 -4.23842e-06 1.553e-05)
(0.00198714 -4.46319e-06 3.09679e-06)
(0.00180124 -4.41824e-06 1.36011e-06)
(0.00168697 -4.21249e-06 9.5004e-07)
(0.00160657 -3.92747e-06 7.63399e-07)
(0.00154567 -3.61276e-06 6.24301e-07)
(0.00149764 -3.29718e-06 5.16626e-07)
(0.00145861 -2.99601e-06 4.34572e-07)
(0.00142614 -2.71585e-06 3.71209e-07)
(0.00139866 -2.45821e-06 3.21472e-07)
(0.00137505 -2.22158e-06 2.81709e-07)
(0.00135456 -2.00271e-06 2.49281e-07)
(0.00133662 -1.79739e-06 2.22242e-07)
(0.00132084 -1.60094e-06 1.99116e-07)
(0.00130692 -1.40865e-06 1.78767e-07)
(0.00129464 -1.21623e-06 1.60354e-07)
(0.00128383 -1.0204e-06 1.4329e-07)
(0.00127434 -8.19424e-07 1.27205e-07)
(0.00126603 -6.13531e-07 1.11926e-07)
(0.00125881 -4.0515e-07 9.74382e-08)
(0.00125254 -1.98755e-07 8.38194e-08)
(0.00124712 -4.13503e-10 7.12014e-08)
(0.00124243 1.82953e-07 5.97205e-08)
(0.00123839 3.44522e-07 4.94774e-08)
(0.00123489 4.78448e-07 4.05245e-08)
(0.00123187 5.80633e-07 3.28517e-08)
(0.00122925 6.49218e-07 2.64041e-08)
(0.00122699 6.84628e-07 2.10775e-08)
(0.00122504 6.89358e-07 1.67404e-08)
(0.00122337 6.6754e-07 1.32636e-08)
(0.00122194 6.24244e-07 1.04922e-08)
(0.00122074 5.64944e-07 8.30482e-09)
(0.00121974 4.94833e-07 6.57369e-09)
(0.00121892 4.18855e-07 5.22943e-09)
(0.00121827 3.39836e-07 4.13754e-09)
(0.00121774 2.63832e-07 3.13909e-09)
(0.00121743 1.83562e-07 2.19516e-09)
(0.00121698 1.27257e-07 6.14454e-09)
(0.00559976 -3.35106e-06 0.000295428)
(0.00346827 -5.87484e-06 6.88239e-05)
(0.00234197 -7.04061e-06 1.5526e-05)
(0.00198774 -7.35656e-06 3.09125e-06)
(0.00180193 -7.21939e-06 1.35304e-06)
(0.00168769 -6.82492e-06 9.41823e-07)
(0.0016073 -6.31015e-06 7.5433e-07)
(0.00154638 -5.75754e-06 6.14658e-07)
(0.00149833 -5.21373e-06 5.06688e-07)
(0.00145927 -4.70228e-06 4.24583e-07)
(0.00142678 -4.23235e-06 3.61357e-07)
(0.00139926 -3.80466e-06 3.11899e-07)
(0.00137564 -3.41516e-06 2.72504e-07)
(0.00135512 -3.05709e-06 2.40494e-07)
(0.00133717 -2.72225e-06 2.13891e-07)
(0.00132138 -2.40186e-06 1.91186e-07)
(0.00130745 -2.08723e-06 1.71233e-07)
(0.00129516 -1.77065e-06 1.53174e-07)
(0.00128433 -1.4463e-06 1.36405e-07)
(0.00127483 -1.11118e-06 1.20554e-07)
(0.00126651 -7.65843e-07 1.05444e-07)
(0.00125926 -4.14744e-07 9.1059e-08)
(0.00125296 -6.59725e-08 7.7479e-08)
(0.0012475 2.6957e-07 6.48331e-08)
(0.00124277 5.7948e-07 5.32745e-08)
(0.00123868 8.51501e-07 4.29149e-08)
(0.00123514 1.07518e-06 3.3825e-08)
(0.00123207 1.24311e-06 2.60222e-08)
(0.00122941 1.35183e-06 1.94636e-08)
(0.00122711 1.40194e-06 1.40737e-08)
(0.00122512 1.39772e-06 9.74422e-09)
(0.00122342 1.34635e-06 6.35353e-09)
(0.00122197 1.25681e-06 3.76646e-09)
(0.00122075 1.13884e-06 1.85654e-09)
(0.00121973 1.00177e-06 4.88482e-10)
(0.0012189 8.54445e-07 -4.12799e-10)
(0.00121825 7.02029e-07 -9.91217e-10)
(0.00121772 5.54689e-07 -1.35081e-09)
(0.00121741 3.9771e-07 -1.6184e-09)
(0.00121697 2.80102e-07 3.92242e-09)
(0.00559985 -4.82792e-06 0.00029543)
(0.00346868 -8.4488e-06 6.88258e-05)
(0.00234275 -1.00849e-05 1.55316e-05)
(0.00198873 -1.05274e-05 3.09972e-06)
(0.00180301 -1.03313e-05 1.36372e-06)
(0.00168879 -9.78175e-06 9.54451e-07)
(0.00160836 -9.06763e-06 7.68359e-07)
(0.00154739 -8.30188e-06 6.29521e-07)
(0.00149926 -7.54773e-06 5.21911e-07)
(0.00146012 -6.83692e-06 4.39777e-07)
(0.00142756 -6.18187e-06 3.7624e-07)
(0.00139999 -5.5837e-06 3.26274e-07)
(0.00137631 -5.03703e-06 2.86249e-07)
(0.00135575 -4.5328e-06 2.53543e-07)
(0.00133777 -4.05993e-06 2.26225e-07)
(0.00132195 -3.60639e-06 2.02827e-07)
(0.001308 -3.16031e-06 1.82234e-07)
(0.0012957 -2.71115e-06 1.63606e-07)
(0.00128486 -2.25107e-06 1.46366e-07)
(0.00127533 -1.77622e-06 1.30152e-07)
(0.00126699 -1.28779e-06 1.14806e-07)
(0.00125971 -7.92435e-07 1.00313e-07)
(0.00125337 -3.01833e-07 8.67474e-08)
(0.00124786 1.68569e-07 7.42408e-08)
(0.00124307 6.01486e-07 6.29187e-08)
(0.00123892 9.80073e-07 5.2869e-08)
(0.00123531 1.29023e-06 4.41212e-08)
(0.00123217 1.52238e-06 3.66415e-08)
(0.00122944 1.67251e-06 3.03526e-08)
(0.00122708 1.74233e-06 2.51416e-08)
(0.00122504 1.73854e-06 2.08564e-08)
(0.0012233 1.67171e-06 1.7354e-08)
(0.00122182 1.55463e-06 1.44941e-08)
(0.00122058 1.40086e-06 1.21451e-08)
(0.00121955 1.22314e-06 1.01897e-08)
(0.00121872 1.03325e-06 8.57189e-09)
(0.00121807 8.38161e-07 7.1271e-09)
(0.00121754 6.51485e-07 5.8895e-09)
(0.00121725 4.55445e-07 4.08663e-09)
(0.00121677 3.19268e-07 9.15148e-09)
(0.00559996 -6.37908e-06 0.000295427)
(0.00346924 -1.10397e-05 6.88153e-05)
(0.00234381 -1.2992e-05 1.55186e-05)
(0.00199008 -1.3398e-05 3.08332e-06)
(0.00180451 -1.30047e-05 1.34404e-06)
(0.00169035 -1.22005e-05 9.32617e-07)
(0.00160992 -1.12243e-05 7.45264e-07)
(0.00154891 -1.02133e-05 6.05926e-07)
(0.00150073 -9.2398e-06 4.98443e-07)
(0.00146153 -8.3367e-06 4.169e-07)
(0.0014289 -7.51397e-06 3.54259e-07)
(0.00140127 -6.76876e-06 3.05371e-07)
(0.00137753 -6.09115e-06 2.66507e-07)
(0.00135693 -5.46736e-06 2.34976e-07)
(0.0013389 -4.88161e-06 2.08783e-07)
(0.00132305 -4.31726e-06 1.86428e-07)
(0.00130907 -3.75814e-06 1.66763e-07)
(0.00129674 -3.19007e-06 1.48931e-07)
(0.00128587 -2.60262e-06 1.32341e-07)
(0.00127631 -1.99094e-06 1.16621e-07)
(0.00126793 -1.35708e-06 1.01604e-07)