/*--------------------------------*- C++ -*----------------------------------*\
| =========                 |                                                 |
| \\      /  F ield         | OpenFOAM: The Open Source CFD Toolbox           |
|  \\    /   O peration     | Version:  v1806                                 |
|   \\  /    A nd           | Web:      www.OpenFOAM.com                      |
|    \\/     M anipulation  |                                                 |
\*---------------------------------------------------------------------------*/
FoamFile
{
    version     2.0;
    format      ascii;
    class       volScalarField;
    location    "1";
    object      p;
}
// * * * * * * * * * * * * * * * * * * * * * * * * * * * * * * * * * * * * * //

dimensions      [0 2 -2 0 0 0 0];


internalField   nonuniform List<scalar> 
768
(
2.19704e-07
0.00161775
0.00343042
0.00446221
0.00497774
0.00525453
0.00540115
0.00544643
0.00532439
0.00490517
0.003935
0.00224321
-0.000207014
0.00147589
0.00311949
0.00412024
0.00467585
0.0049825
0.00510283
0.00506961
0.00483348
0.00429018
0.00327456
0.00165133
-0.000119512
0.00156552
0.00296956
0.00386312
0.00438999
0.00466729
0.00476345
0.00467608
0.00436718
0.00375832
0.00274241
0.00123254
0.000468021
0.00198693
0.00299996
0.0037103
0.00416002
0.00438785
0.00443432
0.00429255
0.0039324
0.00329419
0.00230614
0.000920908
-0.000689935
-0.00390774
-0.00658348
-0.00894582
-0.0109401
-0.0122191
-0.0123457
-0.0115187
-0.0100098
-0.00802461
-0.00557243
-0.00279729
-0.00073926
-0.0033907
-0.005799
-0.00791552
-0.0096268
-0.0107083
-0.0109151
-0.0103344
-0.00910748
-0.00741252
-0.00523975
-0.00287778
-0.000795046
-0.0030368
-0.00517705
-0.00704082
-0.00853022
-0.00947491
-0.00972101
-0.00930826
-0.00832846
-0.00694145
-0.00504668
-0.00301657
-0.00083776
-0.00277761
-0.00464924
-0.00629731
-0.00760802
-0.00845076
-0.0087234
-0.00844703
-0.00769256
-0.00658594
-0.00510411
-0.0034502
-0.000233142
0.00141467
0.00323865
0.00427179
0.00478873
0.0050704
0.00522348
0.00527704
0.00516325
0.00475231
0.00379139
0.00211374
-0.000405692
0.00127873
0.00292797
0.00393134
0.00448943
0.00480132
0.00492753
0.00490173
0.00467355
0.00413883
0.00313324
0.00152355
-0.000301136
0.00137477
0.00278036
0.00367617
0.00420585
0.00448768
0.00459024
0.00450998
0.00420893
0.00360877
0.00260302
0.00110573
0.00029221
0.00180042
0.00281343
0.00352562
0.00397821
0.00421028
0.00426295
0.00412802
0.00377557
0.00314603
0.00216791
0.000794386
-0.000796027
-0.00399156
-0.00665035
-0.00900457
-0.011
-0.0122934
-0.0124291
-0.0115993
-0.0100797
-0.00808061
-0.00561354
-0.00282298
-0.000848763
-0.00348212
-0.00587631
-0.00798443
-0.00969511
-0.0107827
-0.0109935
-0.0104089
-0.00917318
-0.00746682
-0.00527974
-0.0029024
-0.000906761
-0.00313345
-0.00526168
-0.00711732
-0.00860383
-0.00954955
-0.0097957
-0.00937943
-0.00839249
-0.0069969
-0.00508764
-0.00304342
-0.000951021
-0.00287792
-0.00473847
-0.00637874
-0.00768523
-0.00852635
-0.00879731
-0.00851727
-0.00775668
-0.00664239
-0.00514971
-0.00348317
0.00174883
0.00251443
0.00313111
0.00363599
0.00398049
0.00414443
0.00413876
0.00395041
0.00355305
0.00290315
0.00195385
0.000683119
0.00249011
0.00286737
0.00325001
0.00359259
0.00383525
0.00393401
0.00387867
0.00365204
0.00322955
0.00257886
0.0016706
0.000499006
0.00290472
0.00309014
0.00332708
0.0035554
0.00371298
0.0037528
0.00365368
0.00339569
0.00295615
0.00231079
0.00144187
0.000353589
0.00312886
0.00322401
0.00337053
0.00351777
0.00360787
0.00359784
0.0034618
0.00317866
0.00272768
0.0020905
0.00125723
0.000237886
0.00325446
0.00330305
0.00339106
0.00347971
0.00351747
0.00346681
0.00330053
0.00299758
0.00253911
0.00191108
0.00110899
0.000146263
0.00332607
0.00334857
0.00339721
0.00344292
0.00344062
0.00335768
0.00316728
0.00284899
0.00238575
0.00176672
0.000991162
7.45732e-05
0.00336595
0.00337322
0.00339491
0.00340914
0.00337667
0.00326874
0.00305958
0.00272965
0.00226349
0.00165263
0.00089895
1.92557e-05
0.00338679
0.00338487
0.00338818
0.0033797
0.00332509
0.00319845
0.00297515
0.00263664
0.00216878
0.00156487
0.000828604
-2.24751e-05
0.00339582
0.00338848
0.00337969
0.00335552
0.00328536
0.00314544
0.00291197
0.00256743
0.00209865
0.00150026
0.000777208
-5.26771e-05
0.00339723
0.00338708
0.00337107
0.003337
0.00325691
0.00310843
0.00286824
0.0025198
0.0020506
0.00145625
0.000742517
-7.27432e-05
0.0033931
0.00338242
0.00336327
0.00332428
0.00323904
0.0030852
0.00284224
0.00249175
0.00202247
0.0014307
0.000722778
-8.35677e-05
0.00338475
0.00337672
0.00335751
0.00331737
0.00323063
0.00307542
0.00283106
0.00247987
0.00201067
0.00142017
0.000715108
-8.72039e-05
-0.000870233
-0.00256704
-0.00421628
-0.00567933
-0.00684613
-0.00761252
-0.00790862
-0.00774593
-0.00718324
-0.00632646
-0.00525941
-0.00418891
-0.000893375
-0.00239851
-0.00386707
-0.00517818
-0.00623087
-0.00694019
-0.00725428
-0.00718151
-0.00676925
-0.00610994
-0.005309
-0.00454181
-0.000911619
-0.00226764
-0.00359082
-0.00477878
-0.00574127
-0.00640675
-0.00673401
-0.00673157
-0.006438
-0.00593698
-0.00533591
-0.00478869
-0.000926899
-0.00216591
-0.0033735
-0.00446265
-0.00535374
-0.00598553
-0.00632431
-0.00637703
-0.00617889
-0.00580486
-0.00535389
-0.00495949
-0.000938933
-0.00208614
-0.00320221
-0.00421255
-0.00504725
-0.0056532
-0.00600258
-0.00609916
-0.00597758
-0.00570435
-0.00536689
-0.00507985
-0.000946462
-0.00202463
-0.00306724
-0.004015
-0.00480545
-0.00539146
-0.00574889
-0.00588151
-0.005821
-0.00562673
-0.00537524
-0.00516456
-0.000951298
-0.00197638
-0.00296135
-0.0038604
-0.00461636
-0.00518715
-0.00555096
-0.00571249
-0.00569998
-0.00556676
-0.00538011
-0.0052241
-0.000954428
-0.00193823
-0.00287949
-0.0037413
-0.00447106
-0.0050306
-0.00540112
-0.00558364
-0.005608
-0.00552118
-0.00538295
-0.0052661
-0.000956885
-0.00190781
-0.00281764
-0.00365211
-0.00436262
-0.0049141
-0.00528834
-0.00548823
-0.00554031
-0.00548787
-0.00538505
-0.00529591
-0.000958866
-0.00188376
-0.00277286
-0.00358849
-0.00428567
-0.00483203
-0.00520876
-0.00542143
-0.00549342
-0.00546542
-0.00538755
-0.00531737
-0.000958776
-0.00186633
-0.00274305
-0.00354698
-0.00423596
-0.00478007
-0.00515825
-0.00537958
-0.00546473
-0.00545282
-0.00539123
-0.00533334
-0.0009569
-0.00185609
-0.00272663
-0.00352473
-0.00420891
-0.00474597
-0.00513259
-0.0053593
-0.00545165
-0.00544825
-0.00539534
-0.00534546
0.00157108
0.00233067
0.00294721
0.00345359
0.00380093
0.00396908
0.00396927
0.00378743
0.00339754
0.00275616
0.00181646
0.000556577
0.0023115
0.0026856
0.00306827
0.00341226
0.00365775
0.00376067
0.00371091
0.00349063
0.00307538
0.00243293
0.00153389
0.000372387
0.00272592
0.00290977
0.003147
0.00337685
0.00353729
0.00358122
0.00348743
0.00323568
0.00280325
0.00216584
0.00130571
0.00022692
0.00295026
0.00304473
0.00319182
0.00334075
0.00343375
0.00342778
0.00329689
0.00301985
0.00257584
0.00194636
0.00112149
0.00011115
0.00307626
0.00312468
0.00321349
0.00330397
0.00334467
0.00329803
0.00313679
0.0028398
0.00238814
0.00176759
0.000973579
1.941e-05
0.00314834
0.00317098
0.00322061
0.00326825
0.00326892
0.00318998
0.00300453
0.00269207
0.00223548
0.00162373
0.000855987
-5.24208e-05
0.00318869
0.00319629
0.0032191
0.00323534
0.00320587
0.00310192
0.00289763
0.00257343
0.00211376
0.00151002
0.000763953
-0.000107853
0.00320994
0.00320849
0.003213
0.00320661
0.003155
0.00303234
0.00281385
0.00248098
0.00201949
0.00142256
0.000693746
-0.000149658
0.00321933
0.00321253
0.00320501
0.00318295
0.00311583
0.00297989
0.00275116
0.00241219
0.00194969
0.00135819
0.000642458
-0.000179887
0.00322101
0.00321145
0.00319676
0.00316483
0.00308775
0.00294329
0.00270777
0.00236485
0.00190188
0.00131434
0.000607844
-0.000199946
0.00321707
0.00320701
0.00318919
0.00315236
0.00307011
0.00292003
0.00268194
0.00233698
0.00187388
0.00128888
0.000588158
-0.000210757
0.00320882
0.00320142
0.00318356
0.00314557
0.00306181
0.00291039
0.00267084
0.00232516
0.00186214
0.00127839
0.000580519
-0.000214385
-0.000984945
-0.00267004
-0.00430907
-0.00576455
-0.00692639
-0.00768973
-0.00798306
-0.00781643
-0.00724827
-0.00638488
-0.00530998
-0.00423199
-0.00100937
-0.00250338
-0.00396263
-0.00526636
-0.00631366
-0.00701905
-0.00732961
-0.00725275
-0.00683545
-0.00617047
-0.00536353
-0.00459111
-0.00102836
-0.00237413
-0.0036885
-0.00486921
-0.00582604
-0.00648704
-0.00681027
-0.0068037
-0.00650547
-0.00599954
-0.0053937
-0.00484269
-0.00104421
-0.0022737
-0.00347277
-0.00455479
-0.00544007
-0.00606703
-0.00640148
-0.00645006
-0.00624755
-0.00586918
-0.00541428
-0.00501703
-0.00105693
-0.00219465
-0.00330267
-0.00430602
-0.00513482
-0.00573572
-0.00608057
-0.006173
-0.0060473
-0.00577014
-0.00542934
-0.00514006
-0.00106523
-0.0021335
-0.0031686
-0.00410951
-0.00489401
-0.00547483
-0.00582756
-0.00595608
-0.00589162
-0.00569375
-0.00543933
-0.00522682
-0.00107055
-0.00208571
-0.00306337
-0.00395569
-0.00470571
-0.00527125
-0.00563019
-0.00578771
-0.00577135
-0.00563476
-0.00544549
-0.00528792
-0.00107407
-0.00204793
-0.002982
-0.00383722
-0.00456101
-0.00511531
-0.0054815
-0.00565944
-0.00567999
-0.00558996
-0.00544931
-0.00533109
-0.00107665
-0.0020179
-0.0029206
-0.00374851
-0.00445304
-0.00499925
-0.00536893
-0.00556445
-0.00561278
-0.00555724
-0.00545215
-0.00536177
-0.00107852
-0.00199424
-0.00287624
-0.00368525
-0.00437642
-0.00491749
-0.00528958
-0.00549796
-0.00556624
-0.00553522
-0.00545517
-0.00538382
-0.00107828
-0.00197714
-0.00284671
-0.00364401
-0.00432694
-0.00486572
-0.00523923
-0.00545629
-0.00553778
-0.00552288
-0.00545916
-0.00540015
-0.00107633
-0.00196705
-0.00283044
-0.00362187
-0.00430002
-0.00483179
-0.00521365
-0.00543611
-0.0055248
-0.00551844
-0.00546341
-0.00541243
)
;

boundaryField
{
    rotor
    {
        type            zeroGradient;
    }
    stator
    {
        type            zeroGradient;
    }
    AMI1
    {
        type            cyclicAMI;
        value           nonuniform 0();
    }
    AMI2
    {
        type            cyclicAMI;
        value           nonuniform List<scalar> 
48
(
0.000272646
0.00166604
0.00358808
0.00469394
0.00515646
0.00539652
0.00555834
0.00565236
0.00560733
0.0052785
0.00434926
0.00260447
-0.000785711
-0.00441416
-0.00718411
-0.009639
-0.0118013
-0.013118
-0.0131663
-0.0121633
-0.0104675
-0.00833492
-0.0057289
-0.00261359
5.15648e-05
0.00145755
0.00339426
0.00450339
0.00496696
0.00521216
0.00538097
0.00548388
0.00544738
0.00512658
0.00420535
0.00247247
-0.000892463
-0.00449522
-0.00724622
-0.00969267
-0.0118587
-0.0131927
-0.0132524
-0.0122473
-0.0105395
-0.0083917
-0.0057709
-0.00264108
)
;
    }
    front
    {
        type            empty;
    }
    back
    {
        type            empty;
    }
    procBoundary0to1
    {
        type            processor;
        value           nonuniform List<scalar> 8(-0.00263046 -0.00271948 -0.00286872 -0.00331508 -0.000234675 -0.000404789 -0.000298727 0.000297527);
    }
}


// ************************************************************************* //
