/*--------------------------------*- C++ -*----------------------------------*\
| =========                 |                                                 |
| \\      /  F ield         | OpenFOAM: The Open Source CFD Toolbox           |
|  \\    /   O peration     | Version:  v1806                                 |
|   \\  /    A nd           | Web:      www.OpenFOAM.com                      |
|    \\/     M anipulation  |                                                 |
\*---------------------------------------------------------------------------*/
FoamFile
{
    version     2.0;
    format      ascii;
    class       volVectorField;
    location    "1";
    object      U;
}
// * * * * * * * * * * * * * * * * * * * * * * * * * * * * * * * * * * * * * //

dimensions      [0 1 -1 0 0 0 0];


internalField   nonuniform List<vector> 
768
(
(-0.0296499 0.0484359 4.43991e-21)
(-0.0174352 0.036668 -1.05118e-20)
(0.00448269 0.0421471 6.52768e-20)
(0.0219215 0.0409274 -5.56409e-20)
(0.0346835 0.0327561 -2.01225e-21)
(0.0441495 0.0214015 -4.29068e-20)
(0.0498145 0.00882053 -6.69395e-20)
(0.052494 -0.00308122 -4.71292e-20)
(0.0531981 -0.0138009 2.31177e-20)
(0.0518238 -0.0236755 0)
(0.0474133 -0.0328365 0)
(0.0387123 -0.0406436 -4.61954e-21)
(-0.0251752 0.0556935 0)
(-0.0133283 0.0327897 0)
(0.00696413 0.0305836 -5.35815e-20)
(0.020936 0.0318255 1.71024e-20)
(0.0308827 0.0270035 1.8063e-20)
(0.0382824 0.0182168 2.4386e-21)
(0.0425133 0.00759087 5.35351e-20)
(0.0439685 -0.00333664 2.92174e-20)
(0.0430375 -0.0134784 0)
(0.040049 -0.0223408 0)
(0.0349477 -0.0296918 -1.22585e-21)
(0.0273954 -0.0351167 1.73009e-21)
(-0.0195924 0.0628892 0)
(-0.0059509 0.0362108 -8.79514e-21)
(0.0114649 0.027264 -3.83686e-20)
(0.020902 0.0267112 6.0177e-20)
(0.027889 0.0227803 6.82347e-20)
(0.0335473 0.0152755 1.98859e-20)
(0.0364921 0.00605807 -2.72631e-20)
(0.0367674 -0.00349405 -2.91548e-20)
(0.0346701 -0.0125215 3.25377e-20)
(0.0305675 -0.0203318 0)
(0.024695 -0.0264353 9.68137e-22)
(0.0172306 -0.0303749 -6.13026e-22)
(-0.0183235 0.0610604 -1.58698e-20)
(0.00169523 0.0392378 -3.36398e-20)
(0.0154044 0.0264939 4.57682e-20)
(0.0205719 0.0236055 -7.34948e-20)
(0.0253089 0.0197919 1.20577e-20)
(0.0295834 0.0133519 0)
(0.0317042 0.00541885 -6.02044e-21)
(0.0313964 -0.0029865 4.81619e-22)
(0.0287278 -0.0109914 -2.38469e-20)
(0.0240552 -0.0178577 0)
(0.0177772 -0.0230307 -7.34311e-21)
(0.0103068 -0.0260602 -5.07297e-22)
(0.0264136 -0.0442594 2.33407e-21)
(0.0138698 -0.0425967 -9.13382e-21)
(0.00346961 -0.0370985 0)
(-0.00370516 -0.0287096 0)
(-0.00651268 -0.0183251 -6.44954e-20)
(-0.00422336 -0.00761526 -1.42346e-19)
(0.00245538 0.00153747 -2.21957e-19)
(0.0116836 0.00855698 5.93469e-20)
(0.0218681 0.0142673 -1.25394e-19)
(0.0326951 0.0191179 -2.84845e-20)
(0.0450707 0.0234948 1.16596e-19)
(0.0537298 0.0290919 0)
(0.0177969 -0.0372058 -2.13268e-22)
(0.00781086 -0.0355153 -5.46148e-21)
(-0.00105616 -0.0307775 2.25213e-20)
(-0.0077875 -0.0235318 1.8192e-20)
(-0.0112798 -0.014496 6.77838e-20)
(-0.0108447 -0.00475944 0)
(-0.00684903 0.00430806 1.45432e-19)
(-0.000112369 0.0121844 3.81882e-20)
(0.00867375 0.0188801 7.98849e-20)
(0.0198631 0.0227329 0)
(0.0335116 0.0257917 -8.66904e-20)
(0.0512075 0.027072 0)
(0.00868728 -0.031412 -7.04345e-22)
(7.47968e-05 -0.0293945 1.21236e-20)
(-0.00764163 -0.0247928 -2.18633e-20)
(-0.0136783 -0.0180948 -1.55492e-20)
(-0.0172159 -0.00982699 3.37454e-20)
(-0.0177157 -0.000965727 -1.82728e-20)
(-0.015035 0.00754209 0)
(-0.0092251 0.0149207 -4.38943e-20)
(-0.000502576 0.0204457 -3.54063e-20)
(0.0118592 0.0220144 -2.39004e-20)
(0.0244251 0.024325 1.03061e-19)
(0.045856 0.0207388 0)
(0.00222645 -0.0264991 3.60886e-23)
(-0.00565271 -0.0243174 -1.58727e-20)
(-0.0125685 -0.019825 0)
(-0.01792 -0.0135375 4.61841e-20)
(-0.0211299 -0.00603565 0)
(-0.021745 0.00182836 2.92155e-20)
(-0.0194427 0.00920229 3.38402e-20)
(-0.0140324 0.0151525 -1.58085e-19)
(-0.00571903 0.0190652 3.61298e-21)
(0.00584115 0.0202555 2.75726e-20)
(0.0154765 0.02339 -7.76461e-20)
(0.0332288 0.016765 5.72497e-20)
(0.0484045 0.0297897 0)
(0.0365245 0.0175525 -3.45919e-20)
(0.0419872 -0.00444903 0)
(0.0407227 -0.0218973 -5.66339e-20)
(0.0325493 -0.0346031 -2.28127e-20)
(0.0212293 -0.0440259 1.96734e-20)
(0.00869737 -0.0496621 3.22648e-20)
(-0.0031458 -0.0523334 -1.09457e-20)
(-0.0138118 -0.0530445 2.02878e-20)
(-0.023632 -0.0516876 -3.91365e-20)
(-0.0327284 -0.0473253 -8.54657e-21)
(-0.0404678 -0.0387234 -1.99234e-29)
(0.0556708 0.0251722 1.69714e-21)
(0.0326518 0.0133964 -9.91923e-21)
(0.0303891 -0.00694239 8.60327e-21)
(0.0316458 -0.0209086 0)
(0.0268351 -0.0308095 3.57305e-20)
(0.0180716 -0.03817 -4.10274e-20)
(0.00747937 -0.0423776 -8.07158e-20)
(-0.00340079 -0.0438232 0)
(-0.0134909 -0.0428925 -1.97785e-20)
(-0.0223032 -0.0399124 2.28586e-21)
(-0.0296063 -0.0348316 -1.15913e-21)
(-0.0349915 -0.0273201 -1.51174e-22)
(0.0628955 0.0196627 0)
(0.0361144 0.00600015 -4.03188e-21)
(0.027096 -0.0114582 -4.43954e-20)
(0.0265505 -0.02089 5.72406e-20)
(0.0226313 -0.0278315 -3.47077e-20)
(0.0151482 -0.0334528 -1.8287e-20)
(0.00596447 -0.0363686 4.69414e-20)
(-0.0035488 -0.0366281 3.44749e-20)
(-0.0125339 -0.0345298 8.54379e-21)
(-0.0202997 -0.0304355 1.5127e-20)
(-0.02636 -0.0245806 0)
(-0.0302658 -0.0171434 3.56252e-22)
(0.0610179 0.0183446 -1.33309e-20)
(0.0391753 -0.00170655 1.51012e-20)
(0.026364 -0.0154381 9.59134e-20)
(0.0234715 -0.0205734 -6.99425e-20)
(0.0196662 -0.025262 -4.57124e-20)
(0.0132419 -0.0295006 -4.73292e-20)
(0.00533147 -0.0315971 -1.6385e-20)
(-0.00303908 -0.0312722 -3.31663e-20)
(-0.0110035 -0.0285943 0)
(-0.0178332 -0.0239261 2.52915e-21)
(-0.0229709 -0.017666 -2.52855e-21)
(-0.0259692 -0.0102223 2.62219e-22)
(-0.0440496 -0.0265504 2.00528e-29)
(-0.042407 -0.0141049 9.3023e-21)
(-0.036971 -0.00373936 -3.04716e-20)
(-0.0286534 0.00347368 -4.15044e-20)
(-0.0183153 0.00637425 7.80528e-20)
(-0.00760245 0.00419561 -7.6733e-20)
(0.00159032 -0.00240038 0)
(0.00865539 -0.0115848 -9.63427e-20)
(0.0143767 -0.0217654 0)
(0.0191813 -0.0326162 -1.59013e-19)
(0.0234701 -0.0450275 4.53875e-20)
(0.0290022 -0.0537175 2.56483e-20)
(-0.0370594 -0.0177813 1.96344e-21)
(-0.0353722 -0.0078556 -7.79366e-21)
(-0.0306606 0.000973234 2.28569e-20)
(-0.0234462 0.00770749 4.4339e-20)
(-0.0144325 0.0112441 -2.9292e-21)
(-0.00469267 0.0108722 1.19647e-19)
(0.00439751 0.0069236 1.35119e-19)
(0.0122764 0.000201472 1.31619e-19)
(0.0189268 -0.00860735 1.46789e-19)
(0.0227114 -0.0198248 1.27783e-19)
(0.0257146 -0.0335064 0)
(0.0269634 -0.0512151 0)
(-0.0312851 -0.00863396 5.02388e-23)
(-0.0292663 -5.3556e-05 1.07094e-20)
(-0.0246775 0.00763853 -2.63682e-20)
(-0.0179947 0.0136702 -6.41847e-21)
(-0.00974076 0.0172225 -6.55129e-20)
(-0.000885891 0.0177409 -3.41402e-20)
(0.00761323 0.015065 -1.24922e-19)
(0.0149595 0.00924284 -2.61314e-19)
(0.0204203 0.000498508 -1.05419e-19)
(0.0219305 -0.0118644 1.08794e-19)
(0.0242162 -0.0244375 0)
(0.0205996 -0.0459009 0)
(-0.0263886 -0.00217466 3.75317e-23)
(-0.0242017 0.00567294 -3.66209e-21)
(-0.0197167 0.0125596 3.66148e-21)
(-0.0134433 0.0178931 -6.56076e-20)
(-0.00595876 0.0210955 7.67776e-20)
(0.00188417 0.0217056 4.10989e-20)
(0.00922708 0.0193972 -1.78886e-23)
(0.0151332 0.0139872 -2.16007e-20)
(0.0190008 0.00568056 1.16551e-19)
(0.0201581 -0.00585648 -1.05385e-19)
(0.0232785 -0.0154708 8.00137e-20)
(0.0166161 -0.0332702 0)
(-0.0224249 0.0446407 1.56686e-20)
(0.00463246 0.0372477 3.27111e-20)
(0.0153033 0.025895 -4.73311e-20)
(0.0186121 0.0216029 0)
(0.0225541 0.0175694 -7.63842e-20)
(0.0260596 0.0118588 -4.57718e-20)
(0.0277658 0.00506978 3.97937e-20)
(0.0273314 -0.00210978 2.0831e-20)
(0.024702 -0.00902118 0)
(0.0201108 -0.0149949 2.25152e-21)
(0.0139685 -0.0194498 5.65337e-21)
(0.00679793 -0.0219432 1.96362e-22)
(-0.0168729 0.0344424 3.77263e-20)
(0.00355839 0.0317561 -1.0864e-20)
(0.0121864 0.0236171 5.6969e-20)
(0.0160397 0.0195818 0)
(0.0198766 0.0156282 0)
(0.0229658 0.0105891 7.36285e-20)
(0.0244239 0.00477107 4.07042e-20)
(0.0240261 -0.00131954 -3.38315e-20)
(0.0217025 -0.00717481 6.22014e-21)
(0.0176005 -0.0122623 1.9574e-20)
(0.0120526 -0.016066 -1.91853e-21)
(0.0055493 -0.0181807 1.49286e-22)
(-0.012768 0.0257919 -3.70979e-20)
(0.00229933 0.0258031 0)
(0.00946754 0.0207403 0)
(0.0138061 0.0174563 0)
(0.0175317 0.0138854 0)
(0.0203171 0.00949689 6.55282e-20)
(0.0215887 0.00450969 -1.23178e-19)
(0.0212352 -0.000673982 2.94141e-20)
(0.0192176 -0.00563686 0)
(0.015658 -0.00993782 -1.71844e-20)
(0.0108354 -0.0131541 -4.35142e-21)
(0.00515856 -0.0149479 -5.41123e-22)
(-0.0100607 0.0196603 4.30504e-20)
(0.00129414 0.0206437 5.54459e-20)
(0.00755653 0.017858 -5.73431e-20)
(0.0120422 0.0153845 4.7911e-20)
(0.0155832 0.0123161 0)
(0.0181008 0.00855176 1.02217e-20)
(0.0192194 0.00429068 4.25694e-20)
(0.0188914 -0.000126257 -3.33211e-20)
(0.0171101 -0.00435094 5.05418e-21)
(0.0139938 -0.00799795 -1.43108e-21)
(0.00979754 -0.0107206 6.05163e-21)
(0.00486777 -0.0122392 1.7786e-22)
(-0.00771685 0.0150296 1.30329e-21)
(0.000924654 0.0165477 -4.32128e-20)
(0.00636947 0.0152285 5.63117e-20)
(0.0107148 0.0134598 -1.04184e-19)
(0.0140041 0.0109143 4.65264e-20)
(0.0162695 0.00773397 -1.61343e-21)
(0.0172561 0.00411314 -5.27055e-21)
(0.0169449 0.000351703 4.89063e-20)
(0.0153474 -0.00324969 -4.61133e-21)
(0.012579 -0.00635089 0)
(0.00887624 -0.0086639 2.61384e-22)
(0.00454442 -0.00995552 5.90955e-23)
(-0.0058542 0.011648 -4.24292e-20)
(0.000951748 0.0133518 0)
(0.00569679 0.0129327 0)
(0.00974285 0.0117293 5.60627e-20)
(0.012746 0.00967649 -1.00797e-19)
(0.0147734 0.00702767 -5.5189e-20)
(0.0156391 0.00397114 5.72473e-21)
(0.0153367 0.00077675 -3.7349e-20)
(0.0138874 -0.00228663 4.24473e-21)
(0.0114021 -0.00492536 -1.1178e-21)
(0.00809423 -0.00689336 1.33478e-21)
(0.004238 -0.00799667 -2.16525e-22)
(-0.0042773 0.00902282 -8.50429e-20)
(0.00122755 0.010822 -9.58724e-20)
(0.00537578 0.0109614 2.14025e-20)
(0.0090558 0.0102074 3.21425e-20)
(0.0117659 0.00859836 8.5588e-20)
(0.0135708 0.0064235 1.0042e-20)
(0.0143212 0.00386282 -1.00234e-20)
(0.0140173 0.00116344 0)
(0.0126843 -0.00143346 0)
(0.0104291 -0.00367667 9.15745e-21)
(0.00744382 -0.00535095 1.00837e-21)
(0.00397479 -0.0062924 5.49796e-30)
(-0.00291855 0.00693064 8.30348e-20)
(0.00164909 0.00877802 -1.88221e-22)
(0.00529504 0.00928011 -8.32535e-20)
(0.00860109 0.00888889 -1.24716e-19)
(0.0110274 0.0076715 -4.13165e-20)
(0.0126246 0.00591484 9.53343e-21)
(0.0132617 0.003789 -1.38455e-20)
(0.0129422 0.00152139 4.32071e-21)
(0.0116949 -0.000674176 2.62724e-20)
(0.0096206 -0.00257481 -2.02654e-20)
(0.00689476 -0.00399607 1.07723e-21)
(0.00373911 -0.00479597 -1.55515e-22)
(-0.00172019 0.00520586 -7.13813e-20)
(0.00215073 0.00708593 7.11427e-20)
(0.00537432 0.00784033 8.12097e-20)
(0.00832855 0.0077502 5.1286e-22)
(0.0104887 0.00687843 0)
(0.0118899 0.00549101 3.76149e-20)
(0.0124116 0.00374835 4.11446e-21)
(0.0120595 0.00185864 -6.10204e-22)
(0.0108647 1.35531e-05 -5.40114e-20)
(0.00892359 -0.00158971 9.20205e-21)
(0.00639784 -0.00279096 0)
(0.00348933 -0.0034667 0)
(-0.000655948 0.00373845 1.59286e-19)
(0.00266787 0.00563911 0)
(0.0055347 0.00658029 9.81867e-21)
(0.00816784 0.00674996 1.46517e-19)
(0.0100801 0.00618714 8.53889e-20)
(0.011291 0.00512645 -9.22704e-22)
(0.0116884 0.00372283 -1.269e-20)
(0.0112813 0.00216721 3.32691e-20)
(0.0101021 0.000635059 2.42866e-20)
(0.00824729 -0.00070578 7.65011e-21)
(0.00586663 -0.00171004 8.05886e-22)
(0.00314653 -0.00227288 0)
(0.000240639 0.00245371 -7.77905e-20)
(0.00306659 0.00432018 0)
(0.00559076 0.00537812 0)
(0.00788231 0.00575298 -7.61103e-20)
(0.00951352 0.00545258 -7.42094e-20)
(0.0104848 0.00467771 -3.53823e-20)
(0.0107011 0.00357735 -3.23947e-20)
(0.0101765 0.00232745 -5.37863e-20)
(0.00895193 0.00108706 -3.224e-21)
(0.00712695 4.36874e-06 -9.02544e-21)
(0.00484624 -0.000795098 7.70783e-22)
(0.00228213 -0.00122383 0)
(0.000653665 0.00114798 -7.52588e-20)
(0.00254594 0.00246277 0)
(0.00422703 0.00329059 0)
(0.00565661 0.00363658 9.08055e-21)
(0.0065497 0.00349534 -9.07821e-21)
(0.00689685 0.0030112 8.1888e-21)
(0.0066498 0.0023058 -8.1277e-21)
(0.00585512 0.00151882 2.75888e-20)
(0.00458034 0.000770549 0)
(0.00292445 0.00016475 -8.63723e-21)
(0.00101293 -0.00022162 -3.23746e-21)
(-0.00101792 -0.000340338 -1.21337e-22)
(-0.000777908 -0.0221463 2.59566e-23)
(-0.00800039 -0.0200678 9.96594e-21)
(-0.0141861 -0.0159597 0)
(-0.0188411 -0.0103224 -3.3053e-20)
(-0.021559 -0.0037588 -6.08189e-20)
(-0.0220693 0.00296056 -3.13631e-20)
(-0.0202294 0.00906481 -2.95276e-20)
(-0.0159571 0.013841 1.22471e-19)
(-0.00942179 0.0171919 0)
(-0.000420868 0.0199209 7.13082e-20)
(0.00784797 0.0238635 -5.68709e-20)
(0.0136246 0.0221679 -5.64578e-20)
(-0.00131436 -0.0183357 1.87812e-23)
(-0.00782286 -0.0165249 0)
(-0.0133357 -0.0129834 -2.70224e-20)
(-0.0174131 -0.00813124 0)
(-0.0197482 -0.00253463 4.0267e-21)
(-0.020231 0.00314981 -9.77332e-20)
(-0.0189701 0.00829461 -2.65841e-20)
(-0.0160712 0.0125001 1.2842e-19)
(-0.0115542 0.0160182 0)
(-0.00472112 0.0196596 -6.93944e-20)
(0.00372484 0.0227527 5.54854e-20)
(0.0122957 0.0191389 0)
(-0.000862112 -0.0150992 8.25931e-22)
(-0.00660319 -0.0135961 -7.81984e-21)
(-0.0114839 -0.0106271 2.6296e-20)
(-0.0151032 -0.00654082 -4.19088e-20)
(-0.0171903 -0.00180749 2.31686e-20)
(-0.0176815 0.00302484 6.07593e-20)
(-0.0167666 0.00747992 1.40839e-19)
(-0.0146807 0.0112956 -1.22884e-19)
(-0.0114075 0.0147544 0)
(-0.00597172 0.0180251 6.27938e-20)
(0.00166793 0.0197625 1.97382e-20)
(0.00965438 0.0158274 0)
(-0.000371227 -0.0123808 6.8748e-22)
(-0.00539059 -0.0111466 9.32661e-21)
(-0.00968725 -0.00866788 -2.37616e-21)
(-0.0129143 -0.00524451 1.94624e-21)
(-0.0148196 -0.00125741 3.82037e-20)
(-0.0153154 0.002842 0)
(-0.014551 0.00667101 -1.12628e-19)
(-0.0127513 0.00998463 2.19302e-20)
(-0.0100117 0.0129197 0)
(-0.00551787 0.0153535 -1.59261e-19)
(0.0008035 0.016252 0)
(0.00757985 0.0127749 0)
(-6.11173e-05 -0.0100884 -2.34777e-21)
(-0.00447991 -0.0090486 0)
(-0.00828335 -0.00698098 -1.47549e-20)
(-0.0111787 -0.0041062 3.05465e-20)
(-0.0129357 -0.00074834 1.20612e-21)
(-0.0134466 0.0027181 -8.31689e-20)
(-0.0128045 0.00596116 2.03834e-20)
(-0.0111547 0.0087463 6.01154e-20)
(-0.00867472 0.011065 -1.95394e-20)
(-0.0048412 0.0127951 7.77905e-20)
(0.000284142 0.0131939 3.58131e-20)
(0.0058817 0.0102389 -1.73923e-20)
(0.000144815 -0.0081214 7.67353e-22)
(-0.00379487 -0.00723573 0)
(-0.00720692 -0.00550831 2.03988e-20)
(-0.00982298 -0.00308329 -7.17615e-21)
(-0.0114564 -0.000255131 7.18536e-21)
(-0.0119918 0.00267049 9.03316e-20)
(-0.0114796 0.0054048 -7.31752e-20)
(-0.0100019 0.00772189 -9.71716e-20)
(-0.00774238 0.00955297 0)
(-0.00440907 0.0107363 -1.78683e-20)
(-0.000170311 0.0107282 1.78495e-20)
(0.00449179 0.00818515 0)
(0.000298481 -0.00640486 -5.80396e-22)
(-0.00325473 -0.00566566 6.78868e-21)
(-0.00634342 -0.004208 0)
(-0.00873193 -0.00216233 0)
(-0.0102668 0.000217212 0)
(-0.0108252 0.00267706 1.70581e-20)
(-0.0104433 0.00496814 5.48358e-20)
(-0.00915542 0.00687747 7.17219e-20)
(-0.00713443 0.00830162 -1.78501e-20)
(-0.00421582 0.00905329 5.06073e-22)
(-0.000631237 0.00873851 1.53492e-19)
(0.00329522 0.00649176 1.32758e-19)
(0.00040034 -0.00489575 0)
(-0.00283452 -0.00428007 -7.91199e-21)
(-0.00565778 -0.00304707 1.85983e-21)
(-0.00786425 -0.00133147 -6.33934e-21)
(-0.0093157 0.00066912 -4.09006e-20)
(-0.0098971 0.002726 -5.27304e-20)
(-0.00963131 0.00462652 6.70378e-20)
(-0.00852616 0.0061789 -1.55205e-19)
(-0.00674954 0.0072517 0)
(-0.00418948 0.00766206 0)
(-0.00111241 0.00712207 -1.16356e-19)
(0.00225118 0.00508802 -1.55396e-20)
(0.00041979 -0.00355217 0)
(-0.0025572 -0.00303392 1.78019e-21)
(-0.00516546 -0.00199721 -1.77843e-21)
(-0.00722088 -0.000559218 0)
(-0.00860286 0.00111328 1.05244e-19)
(-0.00920199 0.00282035 7.52753e-20)
(-0.00903164 0.00437765 -6.35529e-20)
(-0.00809267 0.00560697 6.70148e-20)
(-0.00653873 0.0063751 -1.65808e-20)
(-0.00428992 0.00650589 -1.63433e-20)
(-0.00161778 0.00578663 1.63528e-20)
(0.00131518 0.00388638 -1.27134e-19)
(0.000289642 -0.0023402 0)
(-0.00247852 -0.00189819 0)
(-0.00490671 -0.0010217 1.61972e-20)
(-0.00683101 0.000179792 -5.77662e-21)
(-0.00814445 0.00156726 -3.82861e-20)
(-0.00874344 0.00296597 8.04427e-21)
(-0.00863871 0.00421368 3.05144e-20)
(-0.0078305 0.00514697 -1.11095e-19)
(-0.00645811 0.00563929 1.12428e-19)
(-0.00446908 0.00552286 1.55201e-22)
(-0.00211715 0.00464704 1.59264e-20)
(0.000473073 0.00282684 0)
(-0.000377481 -0.00124504 5.06754e-22)
(-0.00292974 -0.000842112 8.51596e-21)
(-0.00515221 -8.59899e-05 -2.98161e-20)
(-0.00689673 0.000917675 0)
(-0.00806703 0.00205743 6.44817e-21)
(-0.00857167 0.00317737 -6.44781e-21)
(-0.00843181 0.00411973 -4.42235e-20)
(-0.0076559 0.00474511 2.31251e-19)
(-0.0063705 0.00494705 -1.25339e-19)
(-0.0045671 0.00458371 0)
(-0.00247649 0.00357429 0)
(-0.000226274 0.00185697 0)
(-0.00301844 -0.000182543 1.32977e-21)
(-0.00483453 0.000243551 -1.03345e-20)
(-0.00630665 0.000870656 3.02986e-20)
(-0.00732831 0.00161026 -5.35971e-21)
(-0.00784547 0.00236728 1.15625e-20)
(-0.00782249 0.0030292 3.27185e-20)
(-0.00729927 0.00347607 2.82283e-20)
(-0.00632467 0.00362297 -1.47705e-20)
(-0.00503827 0.00342855 1.05881e-19)
(-0.00352646 0.00285901 1.51345e-20)
(-0.00198516 0.00195919 0)
(-0.000485464 0.000824002 1.18907e-19)
(0.0446427 0.0223946 1.31616e-20)
(0.0372129 -0.00467089 3.64662e-20)
(0.0258041 -0.0153526 -4.27343e-20)
(0.0214964 -0.0186135 -6.48077e-20)
(0.0174658 -0.0225148 7.20497e-20)
(0.011767 -0.0259872 7.69332e-20)
(0.00499633 -0.0276703 -7.62324e-21)
(-0.00215961 -0.0272218 -1.39411e-20)
(-0.00904156 -0.0245819 6.67564e-21)
(-0.014981 -0.0199891 0)
(-0.0194042 -0.0138616 0)
(-0.0218704 -0.00671605 -2.36119e-22)
(0.0344348 0.0168451 0)
(0.0317303 -0.0035985 4.11971e-21)
(0.0235476 -0.012221 0)
(0.0194978 -0.0160346 4.97578e-20)
(0.0155425 -0.0198412 -1.35176e-20)
(0.0105123 -0.0229025 2.73224e-20)
(0.00471028 -0.0243388 -7.27077e-20)
(-0.0013603 -0.0239267 6.53253e-21)
(-0.00719645 -0.021596 0)
(-0.0122558 -0.0174928 -1.66084e-20)
(-0.0160304 -0.0119554 0)
(-0.0181221 -0.00547333 5.70435e-22)
(0.0257817 0.0127447 0)
(0.0257763 -0.00233128 -4.93533e-20)
(0.0206825 -0.00948741 1.06069e-20)
(0.0173877 -0.0137971 0)
(0.013814 -0.0174986 4.9346e-20)
(0.00943221 -0.0202611 1.25841e-20)
(0.00445835 -0.0215145 4.44516e-20)
(-0.000707017 -0.0211468 -3.33292e-20)
(-0.00565306 -0.0191222 5.31112e-21)
(-0.00993238 -0.0155636 3.06174e-20)
(-0.0131256 -0.0107497 4.26847e-21)
(-0.0149005 -0.00508948 1.15162e-22)
(0.0196472 0.0100408 -4.06453e-20)
(0.020616 -0.00131735 0)
(0.0178091 -0.00756658 0)
(0.015327 -0.0120311 5.70969e-20)
(0.0122562 -0.0155517 -5.95974e-20)
(0.00849708 -0.0180501 1.16219e-20)
(0.00424616 -0.0191533 -1.15775e-20)
(-0.000157448 -0.018813 2.14667e-20)
(-0.00436689 -0.0170255 1.69957e-20)
(-0.00799447 -0.0139109 -1.36294e-21)
(-0.0106979 -0.00972209 -4.15489e-21)
(-0.0122012 -0.00480587 3.28442e-23)
(0.0150159 0.00770012 3.97647e-20)
(0.0165211 -0.000941051 0)
(0.0151871 -0.00637317 1.08217e-20)
(0.0134114 -0.0107019 -9.89189e-20)
(0.0108639 -0.0139737 0)
(0.00768747 -0.0162227 -5.43736e-20)
(0.00407468 -0.0171958 5.68921e-20)
(0.000324025 -0.0168737 -4.19194e-20)
(-0.00326203 -0.0152712 -1.30803e-20)
(-0.00634754 -0.0125056 -2.71236e-20)
(-0.00864559 -0.0088093 0)
(-0.0099243 -0.0044894 9.57408e-23)
(0.0116351 0.0058408 1.01871e-20)
(0.0133275 -0.000962789 -5.13481e-20)
(0.0128976 -0.00569604 0)
(0.0116884 -0.00972842 4.45274e-22)
(0.00963389 -0.0127163 0)
(0.00698799 -0.0147297 1.13884e-20)
(0.00393803 -0.0155839 -5.00766e-20)
(0.000753138 -0.0152727 3.19395e-20)
(-0.00229578 -0.0138185 1.81053e-20)
(-0.00492207 -0.0113351 1.09994e-20)
(-0.00687875 -0.0080337 -2.62921e-21)
(-0.0079708 -0.00418838 -1.16773e-22)
(0.00901105 0.00426689 0)
(0.0108005 -0.0012343 1.20895e-19)
(0.0109317 -0.00537163 9.13274e-20)
(0.0101728 -0.00903996 3.08944e-20)
(0.00856209 -0.0117367 0)
(0.00638942 -0.0135295 4.9463e-20)
(0.00383396 -0.0142698 -5.16999e-21)
(0.00114179 -0.0139587 -6.19678e-22)
(-0.00144436 -0.0126221 -1.74438e-20)
(-0.00367629 -0.010368 0)
(-0.00534055 -0.0073885 2.56667e-22)
(-0.00627282 -0.00392925 -7.70477e-23)
(0.00692039 0.00291085 -7.90596e-20)
(0.00875954 -0.00165226 -1.67668e-19)
(0.00925496 -0.00528826 -6.92517e-20)
(0.0088595 -0.00858392 -7.86719e-20)
(0.0076404 -0.0109986 0)
(0.00588522 -0.0125851 9.02829e-21)
(0.003763 -0.0132134 -1.30967e-20)
(0.00150262 -0.0128873 6.11629e-22)
(-0.000684574 -0.0116375 3.46327e-21)
(-0.00257665 -0.00956432 0)
(-0.00398853 -0.00684353 2.24665e-21)
(-0.00478142 -0.0036968 1.98569e-22)
(0.00519737 0.00171494 -1.33305e-22)
(0.00707036 -0.00215086 7.70965e-20)
(0.00781904 -0.00536527 0)
(0.00772508 -0.00831008 9.95233e-21)
(0.00685166 -0.0104596 -3.04929e-22)
(0.00546506 -0.0118511 -3.61759e-20)
(0.00372512 -0.0123657 2.80649e-20)
(0.00184131 -0.012008 -3.25483e-20)
(3.62067e-06 -0.0108101 0)
(-0.00159287 -0.00887074 -8.02354e-21)
(-0.00278599 -0.00634983 0)
(-0.00345598 -0.00344928 -2.85767e-22)
(0.00373187 0.000652925 7.55238e-20)
(0.00562634 -0.00266527 -9.38954e-21)
(0.00656234 -0.00552337 9.34714e-20)
(0.00672844 -0.00814763 6.50064e-20)
(0.0061638 -0.0100502 -6.32861e-20)
(0.00510344 -0.0112522 3.41526e-20)
(0.00370289 -0.0116425 -8.6766e-21)
(0.00215116 -0.0112313 2.48357e-20)
(0.000624282 -0.01005 3.12173e-21)
(-0.000709799 -0.00819639 1.47483e-20)
(-0.00170831 -0.00582061 -1.04908e-21)
(-0.00226626 -0.00310811 2.78827e-22)
(0.00244907 -0.000241482 0)
(0.00431004 -0.0030614 0)
(0.00536317 -0.00557725 -7.30146e-20)
(0.00573471 -0.00786039 0)
(0.00543243 -0.00948272 7.89032e-20)
(0.00465761 -0.0104463 -8.31713e-20)
(0.00355975 -0.0106564 -1.91973e-20)
(0.00231342 -0.0101277 2.3041e-20)
(0.00107641 -0.00890218 0)
(-7.89585e-07 -0.00707914 -1.02996e-22)
(-0.000795654 -0.00480308 5.0591e-21)
(-0.001221 -0.0022468 0)
(0.00114521 -0.000652417 -6.24393e-20)
(0.00245572 -0.00253917 -8.89341e-20)
(0.00328004 -0.0042139 8.86052e-21)
(0.00362388 -0.00563753 0)
(0.00348166 -0.00652499 -8.28007e-21)
(0.00299792 -0.00686772 8.06865e-20)
(0.00229392 -0.00661793 -7.73912e-21)
(0.00150936 -0.00582212 -2.87765e-20)
(0.000763951 -0.00454825 2.9069e-21)
(0.00016097 -0.00289572 -7.13651e-21)
(-0.000222754 -0.000989167 -6.48366e-21)
(-0.000339908 0.00103447 0)
(-0.0220534 0.00082881 9.57054e-22)
(-0.0199719 0.00801936 3.25295e-21)
(-0.0158666 0.0141716 -3.25211e-21)
(-0.0102454 0.0188001 -4.12193e-20)
(-0.00370148 0.0214989 -4.969e-20)
(0.00299233 0.021997 6.12454e-20)
(0.00906458 0.0201548 3.00583e-20)
(0.0138045 0.015896 9.36722e-20)
(0.0171277 0.00938434 -2.18859e-19)
(0.0198367 0.000414054 0)
(0.0237706 -0.00782476 -7.75433e-20)
(0.0220983 -0.0135739 0)
(-0.018261 0.00136565 3.94142e-23)
(-0.0164454 0.00784478 0)
(-0.0129057 0.0133246 0)
(-0.00806787 0.0173765 3.25175e-21)
(-0.00248953 0.0196907 4.8237e-20)
(0.00317211 0.02016 1.25174e-19)
(0.00829115 0.0188957 7.77619e-20)
(0.0124695 0.0160092 0)
(0.0159633 0.0115173 1.02692e-19)
(0.0195852 0.0047125 -2.08831e-20)
(0.0226765 -0.00370388 -3.87403e-20)
(0.0190868 -0.0122552 -8.57652e-20)
(-0.0150409 0.000909848 3.07641e-23)
(-0.0135277 0.00662479 -2.67314e-21)
(-0.0105636 0.0114782 -2.25793e-20)
(-0.00648838 0.0150743 5.9621e-20)
(-0.00177063 0.0171423 6.02578e-20)
(0.00304209 0.0176206 5.91904e-21)
(0.00747534 0.0166997 -1.49129e-19)
(0.0112672 0.0146198 -7.0056e-20)
(0.0147028 0.0113652 9.02552e-20)
(0.0179584 0.00595634 0)
(0.0196993 -0.00165254 7.53473e-20)
(0.015784 -0.00962167 -2.98846e-21)
(-0.012332 0.000413933 2.45497e-23)
(-0.0110918 0.0054116 0)
(-0.00861564 0.00968576 2.45805e-20)
(-0.00520119 0.0128915 -1.0519e-20)
(-0.00122774 0.0147802 -4.00973e-20)
(0.002855 0.0152646 -1.79918e-19)
(0.00666475 0.014494 1.08227e-19)
(0.00995741 0.0126975 1.13476e-19)
(0.0128735 0.00997089 -1.9415e-19)
(0.0152955 0.00550162 7.97308e-20)
(0.0161992 -0.000793042 0)
(0.0127388 -0.00755409 6.73583e-20)
(-0.0100471 9.98791e-05 -2.6436e-21)
(-0.00900583 0.00450012 0)
(-0.00693764 0.00828322 0)
(-0.00407081 0.0111605 -2.17364e-20)
(-0.000724827 0.012903 -8.41873e-20)
(0.0027278 0.0134037 8.84112e-20)
(0.00595463 0.0127566 -8.4107e-20)
(0.00872245 0.011109 8.14204e-20)
(0.011027 0.00863928 1.62155e-19)
(0.0127485 0.00482594 -1.17111e-21)
(0.0131507 -0.000277563 -7.23609e-20)
(0.0102089 -0.00586095 0)
(-0.00808847 -0.00010876 8.63759e-22)
(-0.00719948 0.00381391 6.86895e-21)
(-0.00547383 0.00720805 0)
(-0.00305544 0.00980873 0)
(-0.000236998 0.0114285 7.38161e-20)
(0.00267702 0.0119546 6.1728e-20)
(0.00539778 0.0114382 0)
(0.00770049 0.00996298 -7.91661e-20)
(0.00952056 0.0077123 -5.88754e-20)
(0.0106982 0.00439437 -9.32972e-20)
(0.0106927 0.000173636 1.41178e-19)
(0.00816096 -0.00447583 -1.36507e-19)
(-0.00637972 -0.000265382 -1.70069e-21)
(-0.00563461 0.00327291 -8.73309e-21)
(-0.00418208 0.00634675 2.03981e-21)
(-0.00214012 0.00872027 6.86283e-21)
(0.000230029 0.0102429 -1.47808e-20)
(0.00268051 0.0107928 -6.03674e-20)
(0.00496002 0.0104077 0)
(0.00685806 0.00912149 0)
(0.00827376 0.00710738 -7.25753e-20)
(0.00902129 0.00420141 0)
(0.00870905 0.000631769 -5.18865e-20)
(0.0064722 -0.00328342 1.16091e-19)
(-0.00487618 -0.00036992 -4.71789e-24)
(-0.00425707 0.00285267 -6.28424e-21)
(-0.00302639 0.00566242 -1.82304e-20)
(-0.00131413 0.00785484 0)
(0.000677707 0.00929559 -7.47326e-21)
(0.00272686 0.00986864 2.38685e-20)
(0.00461801 0.0095996 -3.36448e-20)
(0.00616184 0.00849515 1.04096e-19)
(0.00722808 0.0067245 5.31844e-20)
(0.00763536 0.00417485 0)
(0.0070978 0.00111031 -1.3449e-19)
(0.00507254 -0.00224301 -1.31955e-19)
(-0.00353679 -0.00039056 -3.35693e-24)
(-0.00302003 0.00257526 6.127e-21)
(-0.00197905 0.00517028 1.77728e-20)
(-0.000547563 0.00721422 -6.17077e-21)
(0.00111891 0.0085855 -9.41182e-22)
(0.00281897 0.0091766 7.11777e-21)
(0.00436924 0.00900288 0)
(0.00559126 0.00806438 -9.72716e-22)
(0.00635452 0.0065152 1.67939e-20)
(0.0064835 0.00427493 -1.50181e-19)
(0.00576689 0.00161332 1.31169e-19)
(0.00387447 -0.0013102 1.28712e-19)
(-0.00232908 -0.000260308 3.16987e-21)
(-0.00189065 0.0024961 5.83713e-21)
(-0.00100755 0.00491172 -1.68053e-20)
(0.000187156 0.006827 0)
(0.00156975 0.00812911 0)
(0.00296211 0.00872062 4.24481e-20)
(0.00420445 0.00861249 -4.68168e-20)
(0.00513221 0.00780423 -1.93353e-19)
(0.00562116 0.00643551 -1.30202e-19)
(0.00550388 0.00445352 -1.57092e-20)
(0.00463121 0.00211046 1.61283e-20)
(0.00281824 -0.000470962 0)
(-0.00123864 0.000404891 -1.54752e-21)
(-0.000837607 0.00294488 -5.69419e-21)
(-7.91046e-05 0.00515608 1.63925e-20)
(0.000922772 0.00689288 -5.70315e-21)
(0.00205655 0.00805261 5.70079e-21)
(0.00317123 0.00855019 -5.59736e-20)
(0.00410929 0.00840729 6.02158e-20)
(0.00473098 0.00763119 1.25267e-19)
(0.00493106 0.00634896 1.2701e-19)
(0.00456827 0.00455146 1.26574e-19)
(0.00356228 0.00246842 -1.40736e-19)
(0.00185144 0.00022598 1.55664e-20)
(-0.000181046 0.00302869 0)
(0.000244236 0.00483543 1.09221e-20)
(0.000869918 0.00629918 0)
(0.00160964 0.00731672 4.01618e-20)
(0.00236228 0.00782823 4.76683e-20)
(0.00302123 0.00780143 0)
(0.00346593 0.00727796 -1.4758e-20)
(0.00361169 0.0063048 2.99586e-20)
(0.00341731 0.00502186 1.14211e-22)
(0.00284957 0.00351469 -1.53337e-20)
(0.00195279 0.00197871 2.42975e-19)
(0.000821624 0.000484109 0)
)
;

boundaryField
{
    rotor
    {
        type            movingWallVelocity;
        value           nonuniform 0();
    }
    stator
    {
        type            movingWallVelocity;
        value           nonuniform List<vector> 
96
(
(-1.07797e-16 -1.00963e-16 -1.99493e-16)
(-1.9073e-15 -1.56528e-15 0)
(1.51125e-15 1.08295e-15 -1.99493e-16)
(0 0 0)
(0 0 0)
(1.1999e-15 5.43666e-16 0)
(0 0 0)
(-7.30731e-16 -2.21665e-16 -1.99493e-16)
(7.05869e-16 1.64585e-16 0)
(0 0 0)
(-3.11354e-16 -3.06656e-17 1.99493e-16)
(1.9928e-16 6.52374e-18 1.99493e-16)
(-4.74001e-18 1.55172e-19 -1.99493e-16)
(0 0 0)
(-5.13e-16 8.46966e-17 -1.99493e-16)
(7.56826e-16 -1.76467e-16 -1.99493e-16)
(7.30731e-16 -2.21665e-16 0)
(1.39792e-15 -5.2614e-16 -3.98986e-16)
(1.1999e-15 -5.43666e-16 0)
(1.2413e-15 -6.6349e-16 -1.99493e-16)
(-1.43136e-15 8.90077e-16 -1.99493e-16)
(0 0 0)
(-3.13056e-15 2.56918e-15 -3.98986e-16)
(-1.59253e-15 1.49157e-15 -1.99493e-16)
(1.49157e-15 -1.59253e-15 3.0155e-32)
(1.28459e-15 -1.56528e-15 -1.99493e-16)
(-7.55624e-16 1.05447e-15 -1.99493e-16)
(1.74397e-16 -2.80453e-16 -1.99493e-16)
(-6.6349e-16 1.2413e-15 0)
(5.99948e-16 -1.32411e-15 0)
(5.2614e-16 -1.39792e-15 0)
(0 0 -1.99493e-16)
(0 0 0)
(0 0 0)
(0 0 0)
(1.55172e-19 -4.74001e-18 -1.99493e-16)
(0 0 0)
(0 0 0)
(-4.35533e-17 -2.63799e-16 0)
(-1.76467e-16 -7.56826e-16 -1.99493e-16)
(0 0 0)
(3.9605e-16 1.05228e-15 0)
(5.43666e-16 1.1999e-15 0)
(7.09286e-16 1.32698e-15 0)
(7.1568e-16 1.15091e-15 1.99493e-16)
(-7.55624e-16 -1.05447e-15 0)
(1.28459e-15 1.56528e-15 3.19376e-32)
(0 0 -1.99493e-16)
(0 0 0)
(-7.97973e-16 7.97973e-16 0)
(-1.59595e-15 1.59595e-15 0)
(0 0 0)
(-7.97973e-16 7.97973e-16 0)
(7.97973e-16 -7.97973e-16 -1.99493e-16)
(-1.59595e-15 1.59595e-15 0)
(-1.59595e-15 1.59595e-15 0)
(0 0 0)
(0 0 -1.99493e-16)
(0 0 0)
(0 0 0)
(0 0 0)
(7.97973e-16 7.97973e-16 0)
(-7.97973e-16 -7.97973e-16 -1.99493e-16)
(7.97973e-16 7.97973e-16 0)
(0 0 -1.99493e-16)
(7.97973e-16 7.97973e-16 0)
(7.97973e-16 7.97973e-16 0)
(0 0 0)
(0 0 -1.99493e-16)
(0 0 -1.99493e-16)
(0 0 0)
(0 0 0)
(0 0 0)
(7.97973e-16 7.97973e-16 -1.99493e-16)
(-7.97973e-16 -7.97973e-16 0)
(7.97973e-16 7.97973e-16 -1.99493e-16)
(0 0 -1.99493e-16)
(0 0 -1.99493e-16)
(7.97973e-16 7.97973e-16 -1.99493e-16)
(0 0 -1.99493e-16)
(0 0 0)
(0 0 -1.99493e-16)
(0 0 -1.99493e-16)
(1.59595e-15 1.59595e-15 -1.99493e-16)
(0 0 0)
(7.97973e-16 -7.97973e-16 -1.99493e-16)
(-7.97973e-16 7.97973e-16 0)
(7.97973e-16 -7.97973e-16 -1.99493e-16)
(0 0 -1.99493e-16)
(0 0 -1.99493e-16)
(7.97973e-16 -7.97973e-16 -1.99493e-16)
(0 0 -1.99493e-16)
(0 0 0)
(0 0 -1.99493e-16)
(0 0 -1.99493e-16)
(1.59595e-15 -1.59595e-15 -1.99493e-16)
)
;
    }
    AMI1
    {
        type            cyclicAMI;
        value           nonuniform 0();
    }
    AMI2
    {
        type            cyclicAMI;