/*--------------------------------*- C++ -*----------------------------------*\
| =========                 |                                                 |
| \\      /  F ield         | OpenFOAM: The Open Source CFD Toolbox           |
|  \\    /   O peration     | Version:  v1806                                 |
|   \\  /    A nd           | Web:      www.OpenFOAM.com                      |
|    \\/     M anipulation  |                                                 |
\*---------------------------------------------------------------------------*/
FoamFile
{
    version     2.0;
    format      ascii;
    class       surfaceVectorField;
    location    "1";
    object      Uf;
}
// * * * * * * * * * * * * * * * * * * * * * * * * * * * * * * * * * * * * * //

dimensions      [0 1 -1 0 0 0 0];


internalField   nonuniform List<vector> 
1460
(
(-0.0240482 0.0421085 -3.03595e-21)
(-0.0270689 0.0516577 2.23476e-21)
(-0.00561485 0.0400686 2.2784e-20)
(-0.0147125 0.0339096 -5.29096e-21)
(0.0130124 0.0414105 4.81795e-21)
(0.00633854 0.035534 -4.83887e-21)
(0.0278359 0.0365723 -2.65445e-20)
(0.021686 0.0359984 -1.70219e-20)
(0.0390981 0.0269218 -2.3963e-20)
(0.0328896 0.0297234 7.9584e-21)
(0.0467595 0.0150188 -5.59431e-20)
(0.0412268 0.0198389 -2.0494e-20)
(0.0510606 0.00283788 -5.70343e-20)
(0.0461165 0.00840043 -8.15856e-21)
(0.0528572 -0.00843808 -1.20058e-20)
(0.0481868 -0.00296788 -9.21054e-21)
(0.0526365 -0.0187132 1.15588e-20)
(0.0481118 -0.0134698 1.16359e-20)
(0.0497914 -0.0282333 0)
(0.0459619 -0.0229294 0)
(0.0434084 -0.0367174 -2.30977e-21)
(0.0412175 -0.0312281 -6.08838e-22)
(0.0330913 -0.0378886 -1.47235e-21)
(0.0323959 -0.0424515 -1.14273e-21)
(-0.0196625 0.0438814 0)
(-0.0217838 0.0586086 0)
(-0.00250404 0.0322069 -2.67908e-20)
(-0.00925001 0.0339857 -4.36937e-21)
(0.0135983 0.0309695 -1.82396e-20)
(0.00939803 0.0286582 -4.60238e-20)
(0.025493 0.0291741 1.96189e-20)
(0.0210409 0.029089 3.85016e-20)
(0.0343527 0.0224968 1.02508e-20)
(0.0294978 0.0247139 4.29879e-20)
(0.0402471 0.0128414 2.79868e-20)
(0.0360144 0.0165695 1.21235e-20)
(0.0431505 0.00209642 4.1174e-20)
(0.0395921 0.00664308 1.33951e-20)
(0.0434986 -0.00840869 1.46087e-20)
(0.0404468 -0.00359882 -7.38698e-22)
(0.0416193 -0.0178945 0)
(0.0389146 -0.0131489 1.61645e-20)
(0.0376166 -0.0260008 -6.12927e-22)
(0.0353587 -0.0214644 0)
(0.0313233 -0.0323943 1.71607e-22)
(0.0298643 -0.0281759 -1.35894e-22)
(0.0223476 -0.0328239 6.05233e-22)
(0.022476 -0.0361612 7.58413e-22)
(-0.0133895 0.0490082 -4.39757e-21)
(-0.0185374 0.0615273 -7.88591e-21)
(0.00335998 0.0322001 -2.68008e-20)
(-0.00241677 0.0380382 -2.11408e-20)
(0.0158691 0.0267776 1.09042e-20)
(0.0135136 0.0267542 4.93941e-21)
(0.0240799 0.0245636 6.42059e-20)
(0.0208435 0.0249983 -8.16219e-21)
(0.0305614 0.0189506 4.40603e-20)
(0.0266744 0.0211691 3.89475e-20)
(0.0349055 0.0106195 -3.16533e-21)
(0.0316128 0.014242 1.00044e-20)
(0.0365828 0.00126609 -2.81041e-20)
(0.0341423 0.00566224 -1.63068e-20)
(0.0357141 -0.00800904 1.69143e-21)
(0.0341382 -0.00337279 -1.44281e-20)
(0.0326576 -0.016419 1.62688e-20)
(0.0317509 -0.0119056 3.80884e-21)
(0.0276937 -0.0233753 4.84069e-22)
(0.0273539 -0.0192386 0)
(0.0210134 -0.0284018 2.04422e-22)
(0.0212688 -0.0248587 -3.16182e-21)
(0.0137928 -0.0283152 -5.09944e-22)
(0.012849 -0.0308934 -6.58686e-22)
(-0.00969675 0.0489366 -2.47548e-20)
(-0.0221846 0.0548454 -2.4846e-20)
(0.00895241 0.0331748 6.06421e-21)
(0.00252084 0.0390215 -9.90572e-21)
(0.0178606 0.0249645 -1.38633e-20)
(0.0152062 0.0264026 -5.04231e-22)
(0.0227979 0.0216164 -3.00219e-20)
(0.019595 0.0226148 -3.69662e-20)
(0.0273775 0.016538 6.02887e-21)
(0.023957 0.0186548 -3.22398e-20)
(0.0305729 0.009356 -3.01022e-21)
(0.0278517 0.0125664 -2.27496e-20)
(0.0315195 0.00120575 -2.70071e-21)
(0.0297641 0.00519926 1.69779e-20)
(0.0300566 -0.00699041 -1.16706e-20)
(0.0293924 -0.00260475 1.05957e-20)
(0.0264118 -0.0144205 -1.19234e-20)
(0.02674 -0.0100686 -1.19944e-20)
(0.0209428 -0.0204407 -3.67155e-21)
(0.0221044 -0.0164936 1.11905e-21)
(0.0140392 -0.0245456 -3.92666e-21)
(0.0158895 -0.0213044 -7.59259e-22)
(0.00615909 -0.0262797 -2.35604e-22)
(0.00856395 -0.0240489 -1.37334e-22)
(0.0195742 -0.0433909 -3.39987e-21)
(0.0221343 -0.0407469 1.06295e-21)
(0.00826852 -0.0397948 -4.56691e-21)
(0.0108573 -0.039113 -7.30989e-21)
(-0.00047655 -0.0328327 0)
(0.00120404 -0.0340668 1.11855e-20)
(-0.00554383 -0.0234008 -3.22477e-20)
(-0.00575528 -0.0262348 9.03534e-21)
(-0.00548513 -0.0129304 -1.03159e-19)
(-0.00890713 -0.0165117 7.24842e-22)
(-0.000912957 -0.0030269 -1.82151e-19)
(-0.00748489 -0.00612505 -7.16475e-20)
(0.00706036 0.00505173 -8.1305e-20)
(-0.00211059 0.00303536 -3.87951e-20)
(0.0168537 0.0113672 -3.26431e-20)
(0.00590939 0.0105165 4.88381e-20)
(0.0273599 0.0166403 -7.69394e-20)
(0.0154829 0.0168285 -2.17924e-20)
(0.0390791 0.0211558 4.51029e-20)
(0.0265643 0.0212516 -1.43373e-20)
(0.0499383 0.0258215 5.82979e-20)
(0.0396709 0.0250514 1.00603e-20)
(0.0526625 0.0282867 0)
(0.0515673 0.0289406 0)
(0.0124308 -0.0363361 -3.03532e-21)
(0.0132692 -0.034392 -3.76869e-22)
(0.00301125 -0.0330982 8.52991e-21)
(0.00395963 -0.0325558 3.17306e-21)
(-0.00472282 -0.0270948 2.03567e-20)
(-0.00434127 -0.0278861 6.77524e-22)
(-0.00971979 -0.0189641 4.3396e-20)
(-0.0107336 -0.0209148 1.42963e-21)
(-0.0113656 -0.00952478 3.38919e-20)
(-0.0142299 -0.0121801 5.08737e-20)
(-0.00906481 -0.000135405 7.27161e-20)
(-0.014247 -0.00284526 -9.07779e-21)
(-0.00360582 0.00830791 9.24011e-20)
(-0.0108716 0.00601221 7.31825e-20)
(0.0042817 0.0155317 5.90366e-20)
(-0.00456239 0.013688 -3.40429e-21)
(0.0142147 0.0208424 3.99425e-20)
(0.00422608 0.0198365 2.2609e-20)
(0.0269367 0.0240709 -4.33452e-20)
(0.016026 0.0225702 -1.18735e-20)
(0.0425239 0.0262877 -4.33452e-20)
(0.0292471 0.0253672 7.57686e-21)
(0.0488992 0.0242997 0)
(0.0541063 0.025455 8.48568e-22)
(0.00410944 -0.0303854 5.7096e-21)
(0.0054742 -0.0290504 -2.88644e-22)
(-0.00403623 -0.0270603 -4.86988e-21)
(-0.00278107 -0.0269711 -1.66827e-21)
(-0.0108821 -0.0213996 -1.87062e-20)
(-0.0101051 -0.0224168 -1.09992e-20)
(-0.0157657 -0.0138755 8.39974e-21)
(-0.0157977 -0.01588 1.51269e-20)
(-0.0178512 -0.00526553 8.59819e-21)
(-0.0191654 -0.00795805 1.69769e-20)
(-0.0167111 0.00342724 -9.13639e-21)
(-0.0197093 0.000445433 5.32475e-21)
(-0.01236 0.0113448 -2.19471e-20)
(-0.0171947 0.00843453 1.68156e-20)
(-0.00490874 0.0177091 -3.94307e-20)
(-0.0115802 0.0150989 -1.00637e-19)
(0.00547608 0.0213652 -2.96534e-20)
(-0.00312214 0.0197156 -1.60172e-20)
(0.0183808 0.0229866 4.08543e-20)
(0.00877054 0.0210033 1.67718e-21)
(0.034892 0.0227499 5.15306e-20)
(0.019729 0.0235566 1.70344e-20)
(0.0397746 0.0189705 2.84481e-20)
(0.0555161 0.0190604 0)
(-0.00192212 -0.0253946 -7.91828e-21)
(0.000732403 -0.0243604 4.53678e-23)
(-0.00934885 -0.0220398 -7.93633e-21)
(-0.00682254 -0.0222355 -3.10065e-21)
(-0.0155235 -0.0166257 2.30921e-20)
(-0.0133759 -0.0179247 0)
(-0.0198504 -0.00969938 2.30921e-20)
(-0.0183814 -0.0119551 6.87521e-21)
(-0.0217723 -0.00198998 1.46078e-20)
(-0.0213464 -0.00491478 -3.02284e-20)
(-0.0208928 0.00563916 3.01574e-20)
(-0.0219078 0.00238686 -8.72492e-22)
(-0.016945 0.0122797 -6.21223e-20)
(-0.0198431 0.00911316 2.34495e-21)
(-0.00991076 0.0171291 -7.74072e-20)
(-0.0150107 0.0144601 -1.90675e-20)
(-0.000136281 0.0197922 1.45876e-20)
(-0.00763775 0.0180081 1.81725e-21)
(0.011009 0.0215541 -2.50368e-20)
(0.0026131 0.0199278 4.93102e-20)
(0.0236836 0.0206642 -1.01982e-20)
(0.0112257 0.0230658 -6.73204e-20)
(0.0495031 0.015175 2.19594e-20)
(0.0223597 0.0182489 1.59547e-20)
(0.0420363 0.0241594 -1.72959e-20)
(0.0516032 0.0271121 8.42908e-22)
(0.0399271 0.00567699 -1.72959e-20)
(0.0337481 0.0147883 -1.09117e-20)
(0.041226 -0.0129802 -2.8317e-20)
(0.0353431 -0.00632068 4.27294e-21)
(0.0363621 -0.0277758 -3.74031e-20)
(0.0358075 -0.0216593 -2.85059e-20)
(0.0267308 -0.0389931 -1.56962e-21)
(0.029541 -0.0328099 6.26367e-21)
(0.0148716 -0.0466225 2.49535e-20)
(0.019687 -0.0411057 -1.03265e-20)
(0.00274405 -0.0509043 1.04505e-20)
(0.00829499 -0.0459679 -2.27281e-20)
(-0.00847601 -0.0526995 4.67103e-21)
(-0.00302402 -0.0480313 -5.50935e-21)
(-0.018697 -0.0524915 -9.4244e-21)
(-0.013475 -0.047961 8.59871e-22)
(-0.0281577 -0.0496778 -2.38416e-20)
(-0.0228798 -0.045824 -1.88055e-20)
(-0.0365756 -0.0433678 -4.27329e-21)
(-0.0311228 -0.0411147 -4.87749e-21)
(-0.0377343 -0.0330593 -7.50828e-23)
(-0.0422587 -0.0324732 5.23139e-30)
(0.0437902 0.0197074 -6.4947e-21)
(0.0585984 0.0218154 8.54011e-22)
(0.0320478 0.00253982 -4.32638e-21)
(0.033867 0.00930752 -4.8919e-22)
(0.0307816 -0.0135725 4.30163e-21)
(0.028477 -0.00938364 -1.77261e-20)
(0.028996 -0.0254356 1.78652e-20)
(0.0289182 -0.0210214 2.84367e-20)
(0.0223394 -0.0342587 -2.64847e-21)
(0.0245548 -0.0294326 -3.45795e-22)
(0.0127122 -0.0401211 -6.08716e-20)
(0.0164363 -0.0359094 -2.97302e-20)
(0.00200837 -0.0430093 -4.03579e-20)
(0.00654377 -0.0394612 -1.63231e-20)
(-0.00844682 -0.0433541 -9.88924e-21)
(-0.0036583 -0.0403046 1.71269e-20)
(-0.0178821 -0.0414775 -8.74631e-21)
(-0.0131612 -0.0387719 -5.70817e-21)
(-0.0259393 -0.037489 5.63365e-22)
(-0.0214279 -0.0352241 8.968e-21)
(-0.032289 -0.0312268 -7.3526e-22)
(-0.0280933 -0.0297488 -5.83284e-22)
(-0.0327044 -0.0222663 1.38693e-22)
(-0.0360254 -0.0224329 9.06133e-22)
(0.0489539 0.0134598 -2.01594e-21)
(0.0615075 0.0185816 -6.62428e-21)
(0.0320735 -0.00333933 -2.42136e-20)
(0.0379577 0.00243512 1.47774e-21)
(0.0266123 -0.0158585 6.4226e-21)
(0.0266046 -0.0135274 2.68318e-20)
(0.0244051 -0.024039 1.12664e-20)
(0.0248514 -0.0208378 -7.86727e-21)
(0.0188113 -0.030483 -2.64974e-20)
(0.0210323 -0.0266218 -4.01761e-20)
(0.0105091 -0.0347966 1.48502e-20)
(0.0141257 -0.031523 -3.27184e-20)
(0.0011917 -0.0364508 4.08144e-20)
(0.00557393 -0.0340262 1.54737e-20)
(-0.00804292 -0.035573 2.15224e-20)
(-0.0034304 -0.0340076 1.87401e-22)
(-0.0164092 -0.0325207 1.18354e-20)
(-0.0119242 -0.0316155 4.29828e-21)
(-0.0233217 -0.0275699 7.56348e-21)
(-0.019213 -0.0272238 8.86695e-21)
(-0.0283096 -0.0209129 1.78126e-22)
(-0.0247915 -0.0211561 -1.25647e-21)
(-0.0282146 -0.013707 3.59832e-22)
(-0.0307754 -0.0127799 2.03245e-22)
(0.0488859 0.00969964 8.85179e-22)
(0.0548225 0.0221778 -2.47829e-20)
(0.0330832 -0.00898084 5.33266e-20)
(0.0389754 -0.00254354 2.57201e-20)
(0.0248317 -0.017877 1.29854e-20)
(0.0262951 -0.0152456 2.93837e-20)
(0.0214843 -0.0227713 -5.71113e-20)
(0.0224957 -0.0195957 -6.73904e-20)
(0.0164195 -0.0273112 -4.65208e-20)
(0.0185409 -0.0239135 1.31503e-20)
(0.00925693 -0.0304771 -3.21862e-20)
(0.0124667 -0.0277734 1.48594e-20)
(0.00113523 -0.0314023 -2.47757e-20)
(0.0051219 -0.0296616 -1.20302e-20)
(-0.00702247 -0.0299289 -1.65832e-20)
(-0.00265849 -0.0292762 -2.36109e-20)
(-0.0144145 -0.0262795 1.26457e-21)
(-0.0100873 -0.0266138 3.31794e-21)
(-0.0203986 -0.0208216 2.7611e-23)
(-0.0164766 -0.0219794 1.2721e-21)
(-0.0244702 -0.0139418 -1.13316e-21)
(-0.0212519 -0.0157804 -1.2718e-21)
(-0.0261789 -0.00609216 1.49875e-22)
(-0.0239659 -0.00848072 3.41325e-23)
(-0.0431914 -0.019765 4.65115e-21)
(-0.0405742 -0.0221952 9.75172e-22)
(-0.0396368 -0.0085261 -1.05846e-20)
(-0.0389583 -0.0109966 8.11335e-22)
(-0.0327415 0.000222244 -3.5988e-20)
(-0.0339599 -0.00137846 -3.98522e-21)
(-0.0233664 0.00536389 1.82742e-20)
(-0.02618 0.00560277 1.13103e-21)
(-0.0129175 0.00540683 3.87269e-22)
(-0.0164899 0.0088242 3.78319e-20)
(-0.00299398 0.000926796 -3.83665e-20)
(-0.00609824 0.00748942 2.11284e-20)
(0.0051266 -0.00698499 -4.81713e-20)
(0.00310296 0.00217686 6.71087e-20)
(0.0114689 -0.0167569 -4.81713e-20)
(0.010614 -0.00581659 1.78184e-20)
(0.0167224 -0.0272754 -7.95064e-20)
(0.0169081 -0.0153991 7.2905e-20)
(0.0211722 -0.0390218 -5.5745e-20)
(0.0212718 -0.0265048 -1.22748e-20)
(0.0257694 -0.0499047 3.25202e-20)
(0.0250034 -0.0396488 2.28451e-20)
(0.0281928 -0.052665 1.29097e-20)
(-0.0361916 -0.0124492 -2.71923e-21)
(-0.0342535 -0.0132349 1.05202e-21)
(-0.0329687 -0.00307853 7.5316e-21)
(-0.0324191 -0.00397169 1.29814e-21)
(-0.0269939 0.00463937 3.35979e-20)
(-0.0277702 0.00429804 -1.39111e-21)
(-0.0188891 0.0096631 2.02943e-20)
(-0.020822 0.0106893 1.9553e-20)
(-0.00945851 0.0113647 5.76731e-20)
(-0.0121051 0.0142152 -3.40203e-20)
(-5.42023e-05 0.00912333 1.27383e-19)
(-0.00277077 0.014273 4.32464e-20)
(0.00840061 0.00369159 1.33978e-19)
(0.00609312 0.0109238 5.39625e-21)
(0.0156021 -0.00420205 1.39204e-19)
(0.0137536 0.00461605 -6.44021e-20)
(0.0208553 -0.0141619 1.37286e-19)
(0.0198462 -0.00419397 1.94133e-20)
(0.0240193 -0.026918 6.38915e-20)
(0.0225138 -0.0160065 1.18349e-19)
(0.0262006 -0.0425185 0)
(0.0252733 -0.0292498 0)
(0.0241768 -0.0489261 0)
(-0.0302581 -0.00407513 5.3798e-21)
(-0.0289314 -0.00542165 9.15565e-23)
(-0.026939 0.00404222 -7.56271e-21)
(-0.0268481 0.00280171 3.56802e-21)
(-0.0212918 0.0108771 -1.63933e-20)
(-0.0223026 0.0100988 -1.14461e-20)
(-0.013782 0.0157663 -3.59657e-20)
(-0.01578 0.0157795 -3.55994e-20)
(-0.00518165 0.0178696 -4.98265e-20)
(-0.00787437 0.0191509 5.12819e-21)
(0.00350445 0.0167428 -7.7973e-20)
(0.000513881 0.0197022 3.36635e-21)
(0.0114008 0.012386 -1.93118e-19)
(0.0084801 0.0171883 -6.28556e-20)
(0.017717 0.00491761 -1.83596e-19)
(0.0151049 0.0115688 -1.41555e-19)
(0.0213117 -0.00547895 1.68754e-21)
(0.0196655 0.00310429 4.88059e-21)
(0.0228961 -0.0183819 5.43969e-20)
(0.0209119 -0.00878021 3.9912e-21)
(0.0226366 -0.0349085 0)
(0.0234442 -0.0197307 3.97598e-20)
(0.0188251 -0.0398165 0)
(-0.0252816 0.00195576 -1.81228e-21)
(-0.0242598 -0.000681021 5.09528e-22)
(-0.0219278 0.00935469 -2.54925e-22)
(-0.0221283 0.006842 -2.25155e-22)
(-0.0165237 0.0155095 -3.0973e-20)
(-0.0178234 0.0133642 2.25272e-22)
(-0.00961364 0.0198204 4.86999e-21)
(-0.0118696 0.0183476 -5.3486e-20)
(-0.00192341 0.021736 5.89382e-20)
(-0.00484771 0.0212993 1.39203e-20)
(0.00568027 0.0208523 2.192e-20)
(0.00242953 0.0218524 5.10854e-20)
(0.0122831 0.016901 -9.82354e-21)
(0.00912336 0.0197842 1.49307e-20)
(0.017088 0.00987032 4.7475e-20)
(0.0144324 0.0149575 3.52697e-20)
(0.0197125 0.000111186 5.5827e-21)
(0.0179416 0.00760119 -4.87589e-20)
(0.0214493 -0.0110142 -1.26859e-20)
(0.0198366 -0.00262402 -5.30065e-20)
(0.0205424 -0.0236919 4.00068e-20)
(0.0229598 -0.0112083 8.44128e-21)
(0.0181337 -0.02235 0)
(-0.00803257 0.0417015 2.41899e-20)
(-0.0194331 0.0393235 2.66341e-20)
(0.0105044 0.031983 -7.31e-21)
(0.00400164 0.0346357 1.10488e-20)
(0.0171068 0.0238486 -2.36655e-20)
(0.0136218 0.0249468 2.49656e-21)
(0.0206377 0.0196177 -3.81921e-20)
(0.0172789 0.0206856 0)
(0.0243134 0.0147173 -6.11088e-20)
(0.0212194 0.0166112 -3.84117e-20)
(0.0268858 0.00845314 -2.98904e-21)
(0.0245324 0.0112038 1.38188e-20)
(0.0275405 0.00147723 3.02941e-20)
(0.0261164 0.00488945 4.02463e-20)
(0.0260142 -0.00556616 1.04155e-20)
(0.0256982 -0.00174957 -6.49535e-21)
(0.0224156 -0.0120062 1.12576e-21)
(0.0232192 -0.00813892 3.09219e-21)
(0.0170451 -0.0172216 3.9583e-21)
(0.018868 -0.0136677 1.08629e-20)
(0.0103516 -0.0206986 2.92487e-21)
(0.0130186 -0.0177932 1.88919e-21)
(0.00617774 -0.0200892 1.82115e-22)
(0.00290826 -0.0220447 1.11159e-22)
(-0.00620897 0.0334924 1.34311e-20)
(-0.0145425 0.0298323 -3.13011e-21)
(0.00833603 0.0280424 2.05773e-20)
(0.00303755 0.028668 -5.4622e-21)
(0.0143598 0.0217643 2.84845e-20)
(0.0108159 0.0222126 2.86428e-20)
(0.0181199 0.0176984 0)
(0.0149013 0.0185697 0)
(0.0214953 0.0131452 3.68142e-20)
(0.0187045 0.0147731 0)
(0.0237144 0.00768823 5.72562e-20)
(0.0216552 0.010032 6.96008e-20)
(0.0242393 0.00173061 3.43638e-21)
(0.0230221 0.00462005 -4.09758e-20)
(0.0228711 -0.00424535 -1.38206e-20)
(0.0226445 -0.00101838 -2.38442e-21)
(0.0196566 -0.00971753 1.28971e-20)
(0.0204737 -0.00643915 3.12736e-21)
(0.0148179 -0.0141653 8.81852e-21)
(0.0166388 -0.0111319 1.18591e-21)
(0.00875553 -0.0171263 -8.8462e-22)
(0.0114493 -0.0146372 -3.12821e-21)
(0.0053555 -0.016588 -1.86078e-22)
(0.00202131 -0.0182582 8.40338e-23)
(-0.00501423 0.0259905 -1.85489e-20)
(-0.0112135 0.0225205 2.76073e-21)
(0.00624525 0.0235493 0)
(0.00190113 0.0231134 2.75739e-20)
(0.0119064 0.0192784 0)
(0.00852115 0.0193013 -2.85174e-20)
(0.0158584 0.0157802 0)
(0.012916 0.0164467 2.38267e-20)
(0.0190393 0.0117478 3.27641e-20)
(0.0165597 0.0131105 0)
(0.0210058 0.0070252 -2.85825e-20)
(0.0192195 0.00901677 3.79311e-20)
(0.021445 0.00192906 -4.69559e-20)
(0.0204163 0.00438512 -4.06104e-20)
(0.0202443 -0.00315064 1.47071e-20)
(0.0200742 -0.000416527 -1.84998e-21)
(0.0174436 -0.00778619 -8.5922e-21)
(0.0181746 -0.00501925 2.5135e-21)
(0.01323 -0.0115482 -1.07679e-20)
(0.0148338 -0.00899371 -9.35011e-21)
(0.00794644 -0.0140543 -2.47309e-21)
(0.010321 -0.0119617 8.59392e-22)
(0.00501442 -0.0136152 -1.68486e-22)
(0.00205676 -0.0150235 1.42404e-22)
(-0.00426697 0.020254 4.92482e-20)
(-0.00872742 0.0171783 2.03037e-20)
(0.00469272 0.019456 4.78765e-22)
(0.00119095 0.0185082 5.34583e-21)
(0.010056 0.0167928 -4.71606e-21)
(0.00697706 0.0165348 -6.59447e-22)
(0.0139995 0.0139582 2.39555e-20)
(0.0113781 0.0144333 -2.76821e-20)
(0.016979 0.0105015 5.11084e-21)
(0.0147978 0.0116189 2.3142e-20)
(0.0187372 0.00645318 2.67493e-20)
(0.0171933 0.00813744 4.26789e-21)
(0.0191039 0.00209869 4.73266e-21)
(0.0182474 0.00419023 1.8774e-20)
(0.0180281 -0.00223129 -1.41933e-20)
(0.0179274 9.79083e-05 7.57836e-21)
(0.0155604 -0.00617277 1.81155e-21)
(0.016237 -0.00381898 2.46604e-22)
(0.0118771 -0.00936171 2.33016e-21)
(0.0132927 -0.00719473 -7.19268e-22)
(0.00728039 -0.0114833 3.11475e-21)
(0.00934092 -0.0097141 3.17159e-21)
(0.00470739 -0.0111171 1.32706e-22)
(0.00216547 -0.01231 4.3267e-22)
(-0.00332349 0.0158524 -2.09548e-20)
(-0.0067058 0.0132572 -2.14214e-20)
(0.00384598 0.0160407 6.54942e-21)
(0.000987872 0.0148972 -2.17156e-20)
(0.00877443 0.0144993 -2.27532e-20)
(0.00604451 0.0140729 2.82981e-20)
(0.0125345 0.0122881 -2.8829e-20)
(0.0102315 0.0125985 -2.44621e-20)
(0.0152801 0.0093948 2.24565e-20)
(0.0133793 0.0102966 -2.67807e-20)
(0.0168559 0.0059621 -3.44199e-21)
(0.0155285 0.00737524 -2.83293e-20)
(0.0171599 0.00225256 2.16852e-20)
(0.0164553 0.00403285 1.99314e-22)
(0.0161807 -0.00143974 2.22232e-20)
(0.0161486 0.000550818 5.8954e-21)
(0.013975 -0.00479794 -2.30566e-21)
(0.0146239 -0.00278245 -2.0567e-22)
(0.0107115 -0.00750952 1.30692e-22)
(0.0119957 -0.00565492 -5.56077e-22)
(0.0066575 -0.00931317 1.32212e-22)
(0.00848868 -0.00779807 7.9537e-22)
(0.00439242 -0.00899412 -7.80188e-23)
(0.00216712 -0.010022 -1.14434e-21)
(-0.00239936 0.0125454 -2.12146e-20)
(-0.00501484 0.0102834 -6.36316e-20)
(0.00347723 0.0132596 0)
(0.00112033 0.0120549 -4.77011e-20)
(0.00792638 0.012469 2.80313e-20)
(0.00554423 0.0119419 1.06488e-20)
(0.0114052 0.0107957 -2.15809e-20)
(0.00940254 0.0109696 4.41612e-20)
(0.0139016 0.00842205 -7.79932e-20)
(0.0122595 0.00913778 -8.04194e-21)
(0.0153037 0.00553975 -2.51787e-20)
(0.0141779 0.00672082 -2.27334e-20)
(0.0155543 0.00239648 -1.59606e-20)
(0.0149867 0.00390841 -2.11072e-21)
(0.0146516 -0.000744342 -1.66389e-20)
(0.0146838 0.00095739 -1.87661e-20)
(0.0126598 -0.003603 1.56346e-21)
(0.0132917 -0.00187435 2.13277e-21)
(0.00973552 -0.00591102 1.21988e-22)
(0.0109202 -0.00431738 3.99463e-21)
(0.00611633 -0.00744828 5.32716e-22)
(0.00777203 -0.00614031 1.17237e-21)
(0.00410747 -0.00716182 -1.08794e-22)
(0.00211851 -0.00805903 2.75414e-22)
(-0.00148229 0.00995977 -9.04577e-20)
(-0.0035692 0.00794759 -7.12637e-22)
(0.00342217 0.0109842 -3.78782e-20)
(0.00145627 0.00978179 -4.78162e-20)
(0.00739891 0.0107068 2.77053e-20)
(0.00534014 0.0101185 -3.06762e-20)
(0.0105593 0.00948857 5.88652e-20)
(0.00883129 0.00954845 -4.5938e-20)
(0.0128052 0.00757844 4.7815e-20)
(0.0113995 0.00813507 2.24206e-20)
(0.014049 0.00518582 4.81417e-22)
(0.0131028 0.00616407 9.78895e-21)
(0.0142433 0.00253826 -5.01169e-21)
(0.0137969 0.00381836 -1.19253e-20)
(0.013395 -0.000123171 0)
(0.0134855 0.00133102 2.15007e-21)
(0.0115745 -0.00255153 4.57873e-21)
(0.0121948 -0.00106786 1.30736e-20)
(0.00892672 -0.00451509 5.09333e-21)
(0.0100291 -0.00314203 -5.53512e-21)
(0.0056653 -0.00582456 5.04183e-22)
(0.00717198 -0.00469083 1.04263e-21)
(0.00385796 -0.00556154 -7.73873e-23)
(0.0020675 -0.00634863 -2.90198e-22)
(-0.000596479 0.00788788 4.14233e-20)
(-0.00230504 0.00605399 6.1843e-21)
(0.0035725 0.00910613 -4.17208e-20)
(0.0019087 0.00792377 3.55378e-20)
(0.00711104 0.00919339 -1.03985e-19)
(0.00533633 0.008561 -1.35741e-21)
(0.00995193 0.00835968 -8.30164e-20)
(0.00846672 0.00832015 -6.23571e-20)
(0.0119574 0.00685795 -1.58915e-20)
(0.0107602 0.00727507 -2.07539e-20)
(0.0130453 0.00489423 -1.68787e-21)
(0.0122615 0.00569835 2.35092e-20)
(0.0131786 0.00268121 -4.93379e-21)
(0.0128412 0.00376182 -4.90711e-21)
(0.0123664 0.000436418 1.52965e-20)
(0.0125058 0.00167965 1.86667e-21)
(0.0106783 -0.00162042 3.00351e-21)
(0.0112843 -0.000342918 -1.3765e-20)
(0.00825058 -0.00328637 -9.58648e-21)
(0.00927593 -0.002098 -5.55085e-21)
(0.00527719 -0.00439862 4.39772e-22)
(0.00664877 -0.00340971 5.41107e-22)
(0.00361527 -0.00414884 -7.81177e-23)
(0.00200529 -0.00484586 -7.77577e-23)
(0.000251436 0.00617762 8.44553e-23)
(-0.00118476 0.00446936 4.35497e-20)
(0.00385068 0.00753078 7.61762e-20)
(0.00241224 0.00636078 3.57316e-20)
(0.0069983 0.0078934 4.08613e-20)
(0.00545366 0.00721383 4.5675e-20)
(0.009537 0.00738845 2.5643e-22)
(0.0082491 0.00725146 7.32002e-20)
(0.011315 0.00624673 1.88075e-20)
(0.0102864 0.00653226 4.25021e-20)
(0.0122519 0.00466158 2.08647e-20)
(0.0115939 0.00530487 1.8397e-20)
(0.0123134 0.00282991 1.92615e-21)
(0.0120538 0.00372991 -4.24991e-21)
(0.0115133 0.000949819 -2.71986e-20)
(0.0116747 0.00200378 1.62531e-20)
(0.00991787 -0.000783357 -2.24047e-20)
(0.0104877 0.000311838 -1.49593e-20)
(0.00765522 -0.00219106 4.60102e-21)
(0.00858911 -0.00116275 8.42957e-21)
(0.00490762 -0.00313118 0)
(0.00613479 -0.00226671 4.01127e-22)
(0.00331917 -0.00288673 0)
(0.00189376 -0.00350943 0)
(0.00104144 0.00471989 7.96431e-20)
(-0.000205053 0.00309402 4.11768e-20)
(0.00417879 0.00616917 4.90934e-21)
(0.00287446 0.00497267 0)
(0.00698582 0.00675503 7.8853e-20)
(0.00556692 0.00597582 4.93087e-21)
(0.00924586 0.00653891 1.15953e-19)
(0.00802983 0.00624702 3.5585e-20)
(0.0108062 0.00571627 4.28027e-20)
(0.00980126 0.00581552 5.84793e-21)
(0.0115889 0.0044657 -6.35189e-21)
(0.0108916 0.00489891 -1.8108e-20)
(0.0115623 0.0029713 1.01164e-20)
(0.0111975 0.00364881 -2.24991e-20)
(0.0107439 0.00141511 2.87778e-20)
(0.0107317 0.00224557 -1.00776e-20)
(0.00919848 -3.06306e-05 1.59684e-20)
(0.00952995 0.000858337 1.05917e-20)
(0.00705227 -0.00120853 4.23301e-21)
(0.00768988 -0.000354108 -6.57457e-22)
(0.00447155 -0.00199376 4.02943e-22)
(0.00535884 -0.0012563 7.88412e-22)
(0.00271627 -0.00175201 0)
(0.00165828 -0.00230654 0)
(0.00168925 0.0034182 -3.88952e-20)
(0.000484012 0.00176334 -7.65301e-20)
(0.00440047 0.00490424 0)
(0.00282779 0.00337058 0)
(0.00686196 0.00564936 -3.80551e-20)
(0.00492348 0.00432253 0)
(0.00881427 0.00566996 -7.51598e-20)
(0.0067808 0.00468872 -3.36969e-20)
(0.0101149 0.00512225 -5.47958e-20)
(0.00804044 0.00447348 -4.1783e-20)
(0.0106896 0.00416756 -3.38885e-20)
(0.00869821 0.00384864 -1.36898e-20)
(0.0105154 0.0029784 -4.30905e-20)
(0.00868216 0.0029494 -2.03493e-20)
(0.00961536 0.00172096 -2.8393e-20)
(0.00802245 0.00193342 -1.33321e-20)
(0.00806657 0.00055111 -6.12472e-21)
(0.006773 0.000940116 -1.61889e-21)
(0.00598674 -0.000395345 -4.12749e-21)
(0.00503261 9.67695e-05 -8.83217e-21)
(0.00353495 -0.00101138 3.85392e-22)
(0.00293637 -0.000495251 -1.22477e-21)
(0.000638613 -0.000767439 -6.04093e-23)
(0.000896783 -0.00123444 2.53377e-22)
(0.00163512 0.00183634 -3.76294e-20)
(0.00344473 0.00292137 0)
(0.00504664 0.00353362 4.54028e-21)
(0.00620197 0.00362301 4.84389e-22)
(0.00682137 0.00330165 -4.44706e-22)
(0.00685476 0.00269223 4.03852e-22)
(0.00631644 0.00193403 9.73053e-21)
(0.00526139 0.00115638 1.37944e-20)
(0.00377337 0.000471822 -4.31862e-21)
(0.00196499 -2.89228e-05 -5.93339e-21)
(-2.95348e-05 -0.000282751 -1.6794e-21)
(-0.00205881 -0.00026144 6.04215e-22)
(-0.00455014 -0.0210965 4.99595e-21)
(-0.00104496 -0.0202633 2.87474e-23)
(-0.0113183 -0.0179841 4.98297e-21)
(-0.00791276 -0.0183129 5.01162e-21)
(-0.0167696 -0.0130901 -1.65265e-20)
(-0.0137642 -0.0144855 -1.34335e-20)
(-0.0204867 -0.00696381 -4.63076e-20)
(-0.0181325 -0.00923863 -1.66215e-20)
(-0.022092 -0.000304803 -4.6091e-20)
(-0.0206641 -0.00316767 -2.86639e-20)
(-0.0213951 0.00611447 -2.93189e-20)
(-0.0211639 0.00303229 -6.43573e-20)
(-0.0182761 0.0115431 4.64717e-20)
(-0.0196163 0.00865346 -2.80643e-20)
(-0.0127508 0.0155519 6.12356e-20)
(-0.016014 0.0131741 1.25429e-19)
(-0.00498305 0.0185976 3.56541e-20)
(-0.0104746 0.0166201 0)
(0.00409949 0.0215961 9.27891e-21)
(-0.00250121 0.0198711 4.81334e-22)
(0.0116159 0.0222444 -5.66643e-20)
(0.00599217 0.0235476 1.7128e-21)
(0.013339 0.0210625 -2.83912e-20)
(-0.00470638 -0.0174213 9.39061e-24)
(-0.00109001 -0.0167423 4.28665e-22)
(-0.0107788 -0.0147279 -1.35112e-20)
(-0.00721749 -0.0150796 -3.88819e-21)
(-0.0156093 -0.0105106 -1.35112e-20)
(-0.0124177 -0.0118287 -5.85361e-22)
(-0.0188198 -0.00526885 2.01335e-21)
(-0.0162701 -0.00736402 -2.08379e-20)
(-0.0202284 0.000388646 -4.68532e-20)
(-0.0184851 -0.002202 1.34141e-20)
(-0.0198062 0.00580739 -6.21586e-20)
(-0.0189777 0.00304946 -1.92797e-20)
(-0.0176811 0.0104765 5.01603e-20)
(-0.0178873 0.00786132 5.66624e-20)
(-0.0138772 0.0142964 6.42102e-20)
(-0.0153737 0.0119127 3.35461e-21)
(-0.00814181 0.0178416 -3.46972e-20)
(-0.0114682 0.0154108 0)
(-0.000130272 0.0209238 -8.91829e-21)
(-0.00531882 0.0188805 -3.66759e-21)
(0.0087429 0.0203033 2.77427e-20)
(0.00273207 0.0213024 3.77111e-20)
(0.0109342 0.0174409 0)
(-0.00386705 -0.0143388 -3.49696e-21)
(-0.000618451 -0.0137614 7.71799e-22)
(-0.00920938 -0.0120898 9.23807e-21)
(-0.0060019 -0.0123958 6.69904e-22)
(-0.0134955 -0.0085438 -7.80641e-21)
(-0.0105941 -0.00967517 1.2037e-20)
(-0.0163604 -0.00411692 -9.8384e-21)
(-0.0140214 -0.00592484 -2.02222e-20)
(-0.0176423 0.000678722 4.24254e-20)
(-0.0160225 -0.00157062 3.04856e-20)
(-0.0174036 0.00532674 9.99763e-20)
(-0.0165228 0.00288597 3.0543e-20)
(-0.0158563 0.00945313 9.60394e-21)
(-0.0156878 0.00702673 1.52538e-20)
(-0.0130864 0.0130494 -6.14418e-20)
(-0.0137369 0.0106144 -5.08662e-20)
(-0.00865168 0.0163644 3.13969e-20)
(-0.0107495 0.0137839 0)
(-0.00182963 0.0186465 4.29864e-20)
(-0.00579706 0.0166252 -4.69048e-20)
(0.00622786 0.017298 9.86908e-21)
(0.00117683 0.0179421 9.92216e-21)
(0.0085542 0.0142363 0)
(-0.00298631 -0.0117568 5.06296e-21)
(-0.000217379 -0.0112527 -8.09918e-22)
(-0.00767554 -0.00988927 3.62113e-21)
(-0.00493961 -0.0101233 4.6876e-21)
(-0.0114737 -0.00692181 -2.14961e-22)
(-0.00899213 -0.00784806 -8.5333e-21)
(-0.0140526 -0.00320122 2.00749e-20)
(-0.0120565 -0.00470184 1.60742e-20)
(-0.0152426 0.000851726 1.91018e-20)
(-0.0138924 -0.0010366 1.98013e-20)
(-0.0150859 0.00481976 -5.63142e-20)
(-0.0144011 0.00273985 -4.13678e-20)
(-0.0137608 0.0083819 -4.5867e-20)
(-0.0137039 0.0062703 -4.6469e-20)
(-0.0113992 0.0114624 1.09651e-20)
(-0.0119776 0.00933042 4.09233e-20)
(-0.0077102 0.0141001 -7.96306e-20)
(-0.00937879 0.0119456 -9.71879e-21)
(-0.00208269 0.0155921 -7.96306e-20)
(-0.00523245 0.0140095 -4.20633e-20)
(0.00461225 0.0141446 0)
(0.000483067 0.0146552 1.78133e-20)
(0.00668428 0.0114591 -8.65087e-21)
(-0.0023288 -0.00956468 -1.17388e-21)
(4.07007e-05 -0.00912904 -8.07485e-22)
(-0.0065034 -0.00799876 -7.37747e-21)
(-0.00414006 -0.00815628 0)
(-0.00988155 -0.00551365 8.22074e-21)
(-0.00775021 -0.0062626 2.6765e-21)
(-0.0122084 -0.00238677 1.62077e-20)
(-0.0105092 -0.00361834 1.17804e-20)
(-0.0133379 0.00103467 -4.06534e-20)
(-0.0122061 -0.00052379 4.18063e-21)
(-0.0132507 0.00439145 -3.13927e-20)
(-0.0127328 0.00266813 2.92279e-21)
(-0.0120697 0.00739817 4.0675e-20)
(-0.0121579 0.00565672 -2.61595e-20)
(-0.0099243 0.00991119 2.0288e-20)
(-0.010593 0.00821449 -1.79334e-20)
(-0.00669174 0.0118858 2.94629e-20)
(-0.00822563 0.0102891 -9.81905e-21)
(-0.00205082 0.0128197 5.80174e-20)
(-0.00465722 0.0117276 3.02027e-20)
(0.00339457 0.0114431 7.45485e-21)
(1.97133e-05 0.0119205 2.68767e-20)
(0.00515859 0.00918338 -8.74011e-21)
(-0.00191202 -0.00767286 3.83676e-22)
(0.000220809 -0.00728146 9.67826e-23)
(-0.00560106 -0.00635883 1.01994e-20)
(-0.00352731 -0.00646665 3.3777e-21)
(-0.00862928 -0.00427306 6.6113e-21)
(-0.00677985 -0.00487686 1.02494e-20)
(-0.0107809 -0.00163136 -3.05082e-22)
(-0.00928267 -0.00263595 -3.60567e-21)
(-0.0118566 0.00125268 4.87585e-20)
(-0.0108691 -3.53807e-05 3.61029e-21)
(-0.0118451 0.00408298 9.0799e-21)
(-0.0114179 0.00265634 5.38745e-20)
(-0.0108185 0.00660171 -8.4806e-20)
(-0.010971 0.00517218 -9.61197e-21)
(-0.00887869 0.00864122 -4.85858e-20)
(-0.00958729 0.00728948 -1.31389e-20)
(-0.00600895 0.0101 -8.93417e-21)
(-0.00745075 0.00891291 -8.88128e-21)
(-0.00210398 0.0105897 9.81974e-22)
(-0.00433307 0.00987079 -8.72618e-21)
(0.00239418 0.00925193 8.92475e-21)
(-0.000420821 0.00971241 8.53384e-20)
(0.00387778 0.00732268 6.60533e-20)
(-0.00156036 -0.00602987 3.06051e-21)
(0.000348748 -0.00566673 -2.9158e-22)
(-0.0048745 -0.0049269 3.39434e-21)
(-0.0030471 -0.0049912 -4.98721e-22)
(-0.00765061 -0.0031627 0)
(-0.00600387 -0.00364021 9.25487e-22)
(-0.00961419 -0.00094179 0)
(-0.00830288 -0.00176054 -3.15457e-21)
(-0.0106575 0.00148499 8.52907e-21)
(-0.00979687 0.000431006 -2.03529e-20)
(-0.0107296 0.0038621 3.63841e-20)
(-0.0103672 0.00269108 -1.76699e-20)
(-0.00986488 0.00595511 6.32788e-20)
(-0.0100432 0.00478948 6.09077e-20)
(-0.00814809 0.00759137 2.69359e-20)
(-0.00884727 0.00652053 -4.1123e-20)
(-0.00561466 0.00863705 -8.36401e-21)
(-0.00695032 0.00776723 -8.96756e-21)
(-0.00227252 0.00878003 7.78054e-20)
(-0.00421341 0.00834606 2.54242e-22)
(0.00150978 0.00745921 1.43125e-19)
(-0.000880821 0.00792178 1.94473e-20)
(0.00276849 0.00578555 5.91179e-20)
(-0.00128962 -0.00458316 -3.95599e-21)
(0.000409573 -0.0042407 0)
(-0.00432785 -0.00365281 -3.11333e-21)
(-0.00269777 -0.00367281 -3.08834e-21)
(-0.00686438 -0.00216871 -2.23975e-21)
(-0.00541452 -0.00253527 4.91269e-23)
(-0.00869567 -0.000302858 -2.38517e-20)
(-0.00754646 -0.00095743 -3.18435e-21)