/*--------------------------------*- C++ -*----------------------------------*\
| =========                 |                                                 |
| \\      /  F ield         | OpenFOAM: The Open Source CFD Toolbox           |
|  \\    /   O peration     | Version:  v1806                                 |
|   \\  /    A nd           | Web:      www.OpenFOAM.com                      |
|    \\/     M anipulation  |                                                 |
\*---------------------------------------------------------------------------*/
FoamFile
{
    version     2.0;
    format      ascii;
    class       volVectorField;
    location    "3";
    object      U;
}
// * * * * * * * * * * * * * * * * * * * * * * * * * * * * * * * * * * * * * //

dimensions      [0 1 -1 0 0 0 0];


internalField   nonuniform List<vector> 
768
(
(0.0435684 0.0493023 1.37767e-21)
(0.0499895 0.0402723 8.34226e-22)
(0.0542187 0.029019 -7.73628e-21)
(0.0577198 0.0177547 1.38711e-20)
(0.0594919 0.00730502 5.40145e-22)
(0.0598162 -0.00127947 1.80416e-20)
(0.0587046 -0.00764453 4.53266e-20)
(0.0561603 -0.0115968 4.36108e-20)
(0.0524185 -0.0129862 -2.70586e-20)
(0.0481048 -0.0118943 0)
(0.0440139 -0.00881433 0)
(0.0407842 -0.00459588 1.86304e-20)
(0.0304433 0.038843 0)
(0.0356945 0.029319 0)
(0.0399172 0.0216231 6.8187e-21)
(0.0423104 0.0117052 -2.46498e-21)
(0.0426917 0.00229612 -5.48523e-21)
(0.0409654 -0.00580317 -5.39611e-22)
(0.0373827 -0.0117834 -4.01622e-20)
(0.0324622 -0.0151197 -3.06097e-20)
(0.0269228 -0.0156076 0)
(0.0216461 -0.0135028 0)
(0.0175132 -0.00947989 4.25494e-21)
(0.0151962 -0.00456277 -4.7635e-21)
(0.0170114 0.0354674 0)
(0.0241598 0.0206965 1.94351e-21)
(0.028437 0.0146737 9.55129e-21)
(0.0301153 0.00672909 -1.89857e-20)
(0.0299871 -0.00127379 -2.96663e-20)
(0.0277818 -0.00802286 -8.69832e-21)
(0.0237852 -0.012806 2.49644e-20)
(0.0184849 -0.0152446 3.04614e-20)
(0.0126804 -0.0151676 -4.59725e-20)
(0.00738238 -0.0128551 0)
(0.00351062 -0.00890529 -3.96021e-21)
(0.00164787 -0.00427383 3.5716e-21)
(0.0028313 0.0321962 1.11954e-20)
(0.0160854 0.0151469 9.62568e-21)
(0.0195309 0.00870618 -1.12312e-20)
(0.0207746 0.00305692 2.48981e-20)
(0.0203261 -0.00369805 -8.33699e-21)
(0.017893 -0.00953041 0)
(0.0139817 -0.0134214 7.85226e-21)
(0.00913125 -0.0150675 1.87561e-21)
(0.0040048 -0.0144985 3.48809e-20)
(-0.000592568 -0.0120303 0)
(-0.00390006 -0.00830776 2.3854e-20)
(-0.00553783 -0.00410104 3.2729e-21)
(0.0390629 -0.000113427 2.95114e-20)
(0.0393839 0.00347381 -2.01121e-20)
(0.0416353 0.00540706 0)
(0.0453289 0.00542431 0)
(0.0496801 0.00395526 -4.83807e-20)
(0.0539555 0.00153475 -7.51254e-20)
(0.0576703 -0.00169728 -9.61586e-20)
(0.0603648 -0.00606153 2.20714e-20)
(0.0612541 -0.0119997 -3.71329e-20)
(0.0603725 -0.0203984 -7.51732e-21)
(0.0589943 -0.0311186 3.41021e-20)
(0.0563154 -0.0393218 0)
(0.0150247 0.000244225 3.85734e-21)
(0.0170209 0.00386427 -1.33091e-20)
(0.0207493 0.00601352 3.46727e-20)
(0.025384 0.0067477 1.61503e-20)
(0.030215 0.00647745 4.73457e-20)
(0.034789 0.00544476 0)
(0.0389832 0.00340699 6.66577e-20)
(0.0427079 -0.000228931 1.5391e-20)
(0.0452147 -0.00577323 2.61033e-20)
(0.0460378 -0.0138073 0)
(0.0463838 -0.0247952 -2.61777e-20)
(0.044839 -0.0316511 0)
(0.00190444 9.26716e-05 -9.25179e-21)
(0.00402732 0.0036254 3.42189e-20)
(0.00752476 0.00600469 -3.41007e-20)
(0.0117417 0.00735204 -1.50896e-20)
(0.0161917 0.00795392 2.85653e-20)
(0.0206194 0.00782623 -1.34951e-20)
(0.0249027 0.00659879 0)
(0.0288291 0.00370438 -1.96987e-20)
(0.0315266 -0.00114347 -1.53464e-20)
(0.0322873 -0.00840326 -8.68298e-21)
(0.0345822 -0.0195513 4.20232e-20)
(0.0387522 -0.0268733 0)
(-0.00545203 -0.000149979 -3.86278e-22)
(-0.00386799 0.00318202 -4.67709e-20)
(-0.00114141 0.00569397 0)
(0.00232808 0.00748985 5.72394e-20)
(0.00622524 0.00867862 0)
(0.0103714 0.00915876 2.50353e-20)
(0.0145126 0.00856215 2.23518e-20)
(0.0182477 0.00648222 -8.4506e-20)
(0.0206848 0.00269507 3.36764e-21)
(0.0199371 -0.002991 1.2101e-20)
(0.0184225 -0.0116092 -3.29417e-20)
(0.0271187 -0.0202022 4.30549e-20)
(0.0501335 -0.0436225 0)
(0.0403374 -0.0498807 9.85199e-22)
(0.0292505 -0.0545505 0)
(0.017813 -0.0578531 1.35597e-20)
(0.00749475 -0.0597078 9.53555e-21)
(-0.00110314 -0.0601745 -1.20475e-20)
(-0.00756901 -0.0592335 -2.65223e-20)
(-0.01168 -0.0568259 9.1631e-21)
(-0.0132408 -0.0531585 -2.54883e-20)
(-0.0122875 -0.0488482 6.17986e-20)
(-0.00927285 -0.0447008 1.77332e-20)
(-0.00502276 -0.0413756 2.85249e-28)
(0.0392377 -0.0297745 -8.08675e-22)
(0.0296528 -0.0358622 4.77356e-21)
(0.0216673 -0.0402075 -1.02747e-21)
(0.0117738 -0.0424467 0)
(0.00239451 -0.0428425 -1.36826e-20)
(-0.00573878 -0.0411874 2.14691e-20)
(-0.0118206 -0.0376969 6.01011e-20)
(-0.0152966 -0.0328367 0)
(-0.0159176 -0.0273059 2.54535e-20)
(-0.0139002 -0.0219814 -1.61542e-21)
(-0.00988581 -0.0177542 4.26117e-21)
(-0.00489404 -0.0153296 4.35168e-21)
(0.0357578 -0.0168346 0)
(0.0208108 -0.0243436 2.98336e-21)
(0.0147344 -0.0286167 1.07146e-20)
(0.00679263 -0.0302235 -1.8014e-20)
(-0.00121425 -0.0301076 1.34693e-20)
(-0.00800729 -0.0279413 1.23494e-20)
(-0.012882 -0.0239829 -3.32072e-20)
(-0.0154429 -0.0186745 -3.49081e-20)
(-0.0154802 -0.012806 -1.05509e-20)
(-0.0132358 -0.0074009 -2.81277e-20)
(-0.00927534 -0.00339756 0)
(-0.00456576 -0.00142025 -4.47476e-22)
(0.032501 -0.00271612 1.13347e-20)
(0.0152408 -0.0161667 -4.05962e-21)
(0.0087299 -0.0196755 -2.69897e-20)
(0.00311039 -0.0208675 2.37044e-20)
(-0.00364855 -0.0204282 2.41777e-20)
(-0.00953015 -0.0180225 2.99125e-20)
(-0.013495 -0.0141334 1.2191e-20)
(-0.0152327 -0.0092643 3.63278e-20)
(-0.0147506 -0.00406208 0)
(-0.0123385 0.00065016 -6.65051e-21)
(-0.00860986 0.00409365 6.68894e-21)
(-0.00433991 0.00584566 -3.90634e-22)
(-0.000403898 -0.0395282 -2.89048e-28)
(0.00336703 -0.0397092 2.03076e-20)
(0.00552711 -0.0418599 -3.98342e-20)
(0.00575252 -0.0455013 -3.7684e-20)
(0.00445289 -0.0498375 5.31055e-20)
(0.0021385 -0.05412 -4.051e-20)
(-0.00109138 -0.0578448 0)
(-0.00557909 -0.0605358 -3.57138e-20)
(-0.0117426 -0.0613923 0)
(-0.0204162 -0.0604427 -4.03858e-20)
(-0.0313688 -0.0589584 1.10384e-20)
(-0.039692 -0.0561624 5.71644e-21)
(6.20413e-05 -0.0150478 1.36868e-20)
(0.00385939 -0.0169605 -2.26046e-20)
(0.00618936 -0.0206615 3.4901e-20)
(0.007092 -0.0253172 4.95299e-20)
(0.00695292 -0.0302069 1.57193e-21)
(0.00599126 -0.0348602 6.97395e-20)
(0.00392787 -0.0391253 6.39258e-20)
(0.000153197 -0.0428808 5.024e-20)
(-0.00560615 -0.0453694 5.08669e-20)
(-0.0138958 -0.0461611 3.31028e-20)
(-0.0251046 -0.0464485 0)
(-0.03204 -0.0447846 0)
(-6.41885e-05 -0.00160834 -4.55501e-22)
(0.00364045 -0.00370696 2.61965e-20)
(0.00619422 -0.00723542 -4.27561e-20)
(0.0076966 -0.0115314 -3.31996e-21)
(0.00841351 -0.0160914 -5.62837e-20)
(0.00833166 -0.0206489 -2.63668e-20)
(0.00706354 -0.0250493 -6.65956e-20)
(0.00402102 -0.0290314 -1.17392e-19)
(-0.00104253 -0.0317006 -3.53051e-20)
(-0.00855662 -0.0324029 3.81971e-20)
(-0.019941 -0.0346871 0)
(-0.0273076 -0.0387831 0)
(-0.000266597 0.00582235 -3.97539e-22)
(0.00320365 0.00424909 -7.80295e-21)
(0.00587254 0.00148021 7.77516e-21)
(0.00780638 -0.00207342 -7.41823e-20)
(0.00908927 -0.00609228 6.91797e-20)
(0.00959248 -0.0103831 2.38783e-20)
(0.00894631 -0.0146588 -3.46371e-21)
(0.00672355 -0.0184659 -1.90279e-20)
(0.00273229 -0.020888 5.39354e-20)
(-0.0031874 -0.0200269 -3.76542e-20)
(-0.0120518 -0.0184648 3.64196e-20)
(-0.020695 -0.0271695 0)
(-0.0077305 0.0193137 -1.10681e-20)
(0.010282 0.0101343 -9.39609e-21)
(0.0131993 0.00443007 1.7553e-20)
(0.0140097 0.000568307 0)
(0.0134441 -0.00481476 3.9783e-20)
(0.0109558 -0.00980657 3.39542e-20)
(0.00709152 -0.0132165 -3.5607e-20)
(0.00248833 -0.0145594 -2.63607e-20)
(-0.00211914 -0.0138399 0)
(-0.00609855 -0.0113872 -6.13274e-21)
(-0.00892168 -0.00790166 -2.02729e-20)
(-0.0103599 -0.00403839 -3.24297e-22)
(-0.00428724 0.0136339 -1.33933e-20)
(0.00780785 0.00680804 4.10506e-21)
(0.00906002 0.0020446 -2.11504e-20)
(0.0094359 -0.000862842 0)
(0.00883034 -0.00513018 0)
(0.00650313 -0.00923786 -5.4252e-20)
(0.00285568 -0.0121726 -4.1714e-20)
(-0.00150202 -0.0133519 4.19094e-20)
(-0.00582308 -0.0126996 -8.86545e-21)
(-0.00949291 -0.0105198 -4.83003e-20)
(-0.0120845 -0.00737058 5.69998e-21)
(-0.0134465 -0.0038608 -2.72802e-22)
(-0.00258155 0.00959206 1.30913e-20)
(0.0058694 0.00499736 0)
(0.00629481 0.000965994 0)
(0.00654368 -0.0014696 0)
(0.00588887 -0.00493717 0)
(0.00377831 -0.00828996 -5.46812e-20)
(0.000466637 -0.0107402 1.23231e-19)
(-0.0035141 -0.0117583 -3.80122e-20)
(-0.00751645 -0.0112395 0)
(-0.0109585 -0.00939795 4.13126e-20)
(-0.0134482 -0.00665732 1.89427e-20)
(-0.0148429 -0.00354299 8.43256e-21)
(-0.00157723 0.00660367 -1.77298e-20)
(0.00435536 0.00360044 -2.504e-20)
(0.00450826 0.000517561 2.86894e-20)
(0.00472701 -0.00158813 -2.84647e-20)
(0.00401276 -0.00444775 0)
(0.00210384 -0.00719143 -1.23388e-20)
(-0.000865479 -0.0092198 -4.59804e-20)
(-0.00443608 -0.0101071 4.48949e-20)
(-0.00807188 -0.00971583 -7.991e-21)
(-0.0112619 -0.00819011 4.98039e-21)
(-0.0136463 -0.00585737 -2.61432e-20)
(-0.0150765 -0.003139 -3.63391e-22)
(-0.000930813 0.00444106 -2.10042e-21)
(0.00321595 0.00248128 1.92843e-20)
(0.00330105 0.000279847 -2.94229e-20)
(0.00346913 -0.00150871 6.33506e-20)
(0.0027109 -0.00386596 -3.49762e-20)
(0.000977837 -0.00610296 -5.85768e-22)
(-0.00166895 -0.00778308 6.66765e-21)
(-0.00485224 -0.00855015 -7.13156e-20)
(-0.00812254 -0.0082609 7.64794e-21)
(-0.0110425 -0.00700585 0)
(-0.0132868 -0.00503899 -2.52345e-21)
(-0.0147052 -0.00269567 -8.02732e-21)
(-0.000524292 0.00296998 1.88711e-20)
(0.0023532 0.00163705 0)
(0.0023978 9.80117e-05 0)
(0.00248472 -0.00138185 -3.62893e-20)
(0.00170524 -0.00331193 7.68144e-20)
(0.00012196 -0.00512567 5.17613e-20)
(-0.00223685 -0.0065094 -4.62786e-21)
(-0.00506557 -0.00715551 5.64257e-20)
(-0.00798885 -0.00693553 -7.34826e-21)
(-0.010634 -0.00590267 4.48404e-21)
(-0.0127115 -0.00425196 -6.883e-21)
(-0.014073 -0.00224938 2.3989e-21)
(-0.000255584 0.00197774 4.27654e-20)
(0.00170431 0.00103266 5.19311e-20)
(0.00168062 -5.57166e-05 -1.27793e-20)
(0.00167356 -0.00125163 -2.28153e-20)
(0.000884713 -0.00281367 -6.85252e-20)
(-0.000573107 -0.00428021 -1.08787e-20)
(-0.0026909 -0.00540736 1.08464e-20)
(-0.00520803 -0.00593853 0)
(-0.00781456 -0.00576167 0)
(-0.0101951 -0.00490875 -2.85105e-20)
(-0.0120951 -0.00352579 -4.28944e-21)
(-0.0133722 -0.00182238 7.11366e-29)
(-7.84684e-05 0.0013116 -4.16382e-20)
(0.00122124 0.000625266 1.85631e-21)
(0.00111626 -0.000162605 5.17858e-20)
(0.00101219 -0.00111245 8.78443e-20)
(0.000217036 -0.00236072 3.36692e-20)
(-0.00113734 -0.00354166 -1.06328e-20)
(-0.0030561 -0.00445012 1.669e-20)
(-0.00531043 -0.00487879 -6.07156e-21)
(-0.00764013 -0.0047312 -5.76278e-20)
(-0.00977823 -0.00402593 6.76548e-20)
(-0.0115048 -0.00286841 -6.30876e-21)
(-0.0126867 -0.00142699 2.1923e-21)
(4.64653e-05 0.000867626 3.83956e-20)
(0.00086792 0.00038235 -3.97093e-20)
(0.000692243 -0.000204022 -5.04182e-20)
(0.000508128 -0.000942158 9.5962e-22)
(-0.000283188 -0.00192623 0)
(-0.00154908 -0.0028653 -3.8738e-20)
(-0.00329758 -0.00359108 -5.91577e-21)
(-0.00532755 -0.00393387 -7.35347e-22)
(-0.00741647 -0.00381187 1.18628e-19)
(-0.00933626 -0.00323207 -3.07877e-20)
(-0.0108969 -0.00227217 0)
(-0.0119766 -0.00106577 0)
(0.000147871 0.000566687 -8.66677e-20)
(0.000641676 0.000274514 0)
(0.000439185 -0.000153065 -6.75591e-21)
(0.000208728 -0.000705552 -1.07714e-19)
(-0.000558546 -0.00146487 -7.48242e-20)
(-0.00173667 -0.00220145 -1.41437e-21)
(-0.00333254 -0.00277636 1.5887e-20)
(-0.00516334 -0.00305448 -5.45128e-20)
(-0.00703607 -0.00296219 -5.44462e-20)
(-0.00875386 -0.00249919 -2.57332e-20)
(-0.010152 -0.00172284 -3.83967e-21)
(-0.01112 -0.000736392 0)
(0.000229944 0.000321526 4.27115e-20)
(0.000492162 0.000219965 0)
(0.000300775 -7.25987e-05 0)
(3.18912e-05 -0.000463548 5.60973e-20)
(-0.000718809 -0.00103765 6.43398e-20)
(-0.00183076 -0.00160768 3.69563e-20)
(-0.00329777 -0.0020599 4.21624e-20)
(-0.00494972 -0.00228429 8.88214e-20)
(-0.00661349 -0.00221717 6.26596e-21)
(-0.00811832 -0.0018553 3.2597e-20)
(-0.00932186 -0.00123935 -3.72687e-21)
(-0.0101276 -0.000447144 0)
(8.6764e-05 3.62158e-05 4.2098e-20)
(5.26222e-06 -0.000111265 0)
(-0.00032334 -0.000358899 0)
(-0.000773863 -0.000643657 -7.322e-21)
(-0.00155557 -0.00101761 7.31623e-21)
(-0.00255455 -0.00135663 -9.57421e-21)
(-0.0037316 -0.00159511 9.54979e-21)
(-0.00494865 -0.00166672 -4.596e-20)
(-0.00607593 -0.00154272 0)
(-0.00699394 -0.00123133 3.13949e-20)
(-0.00761136 -0.000770648 2.61798e-20)
(-0.00787795 -0.000220354 -7.82857e-21)
(-0.0104278 -0.000376473 -3.31733e-22)
(-0.00929791 0.00280086 2.94727e-20)
(-0.00721382 0.00537947 0)
(-0.00439306 0.00741649 -4.21077e-20)
(-0.00100327 0.00894281 -6.25958e-20)
(0.00280168 0.00982491 -2.4912e-20)
(0.00667731 0.0097582 -2.13798e-20)
(0.0101167 0.00845619 6.76191e-20)
(0.0123717 0.00589093 0)
(0.0119471 0.00217251 3.73663e-20)
(0.00641461 -0.000391542 -3.26789e-20)
(0.000286199 -0.00339692 -4.29526e-20)
(-0.0136486 -0.000467103 -2.79888e-22)
(-0.0128612 0.00254136 0)
(-0.0112728 0.00508626 -5.12202e-20)
(-0.00900334 0.00720656 0)
(-0.00612814 0.00890905 1.46799e-21)
(-0.00275338 0.0100627 -8.51061e-20)
(0.000807713 0.0104065 -1.79378e-20)
(0.00412479 0.0096961 8.50827e-20)
(0.00650545 0.0079044 0)
(0.00724238 0.00511863 -3.532e-20)
(0.00531873 0.0027487 3.05573e-20)
(0.00334162 0.0021577 0)
(-0.0152121 -0.000456505 5.77804e-21)
(-0.0147201 0.00234672 -2.42772e-20)
(-0.0135297 0.00479514 4.9532e-20)
(-0.0117283 0.00689684 -5.7545e-20)
(-0.00934513 0.00864508 2.31717e-20)
(-0.00642671 0.0099186 5.23491e-20)
(-0.00318693 0.0104867 1.09859e-19)
(3.27015e-05 0.0101156 -8.22626e-20)
(0.00261636 0.00870541 0)
(0.00414278 0.0063775 3.9719e-20)
(0.0037202 0.00395945 1.21923e-20)
(0.00198342 0.00137582 0)
(-0.0155928 -0.000382742 2.49783e-21)
(-0.0153293 0.00218383 2.63942e-20)
(-0.0144282 0.00447711 -5.73299e-21)
(-0.0129661 0.00648109 1.20153e-21)
(-0.0109627 0.00816772 4.22852e-20)
(-0.00843616 0.00942221 0)
(-0.00552357 0.0100406 -8.77378e-20)
(-0.0024838 0.00979607 1.67923e-20)
(0.000169913 0.00860793 0)
(0.0020981 0.00659616 -1.02535e-19)
(0.00260021 0.0042564 0)
(0.00181649 0.00159001 0)
(-0.0153085 -0.000268796 -1.62503e-20)
(-0.0151948 0.00203889 0)
(-0.0144805 0.00413549 -3.19607e-20)
(-0.0132365 0.00598043 4.18733e-20)
(-0.0114941 0.00752824 -5.70549e-22)
(-0.00926913 0.00866943 -8.33902e-20)
(-0.00666334 0.00923401 1.62878e-20)
(-0.00387624 0.00902704 4.59479e-20)
(-0.00133216 0.00798878 -1.3474e-20)
(0.000700987 0.00622658 5.1783e-20)
(0.00169053 0.00408858 2.4622e-20)
(0.00144886 0.00146021 -1.20984e-20)
(-0.0147072 -0.000135334 5.16602e-21)
(-0.0146809 0.00190795 0)
(-0.0140866 0.00378738 4.13701e-20)
(-0.0129901 0.00543925 -9.71827e-21)
(-0.0114326 0.00681026 9.71009e-21)
(-0.00944123 0.00780104 8.89509e-20)
(-0.00711022 0.00827013 -6.73425e-20)
(-0.00459835 0.00806382 -7.64299e-20)
(-0.00225271 0.00714216 0)
(-0.000269892 0.00559237 -1.25404e-20)
(0.000933439 0.00366351 1.25889e-20)
(0.00107046 0.00123775 0)
(-0.0140013 3.19328e-06 -2.44404e-21)
(-0.0140242 0.00179132 2.19589e-20)
(-0.013514 0.00344794 0)
(-0.0125291 0.00489978 0)
(-0.0111157 0.0060889 0)
(-0.00931346 0.00692392 1.66165e-20)
(-0.00721719 0.00728855 4.76405e-20)
(-0.00495837 0.0070643 5.94644e-20)
(-0.00282278 0.00622669 -1.32507e-20)
(-0.000951548 0.00484538 7.9821e-22)
(0.00031618 0.0031069 1.11143e-19)
(0.0007099 0.000961434 9.65502e-20)
(-0.0132893 0.000137171 0)
(-0.0133365 0.00168544 -2.36853e-20)
(-0.0128868 0.00312595 4.69046e-21)
(-0.0119883 0.00438447 -8.95848e-21)
(-0.0106917 0.0053953 -5.24518e-20)
(-0.00904376 0.00607837 -5.88259e-20)
(-0.0071392 0.00633572 6.12358e-20)
(-0.00509055 0.00607706 -1.31134e-19)
(-0.00314022 0.00529085 0)
(-0.00139781 0.00403815 0)
(-0.000149914 0.00248193 -8.40417e-20)
(0.000393346 0.00066607 -1.03865e-20)
(-0.0125361 0.000259075 0)
(-0.0125874 0.00157914 4.51825e-21)
(-0.0121759 0.00280914 -4.51478e-21)
(-0.011344 0.0038774 0)
(-0.0101421 0.0047101 1.35911e-19)
(-0.00861865 0.00523995 8.03742e-20)
(-0.00686835 0.0053832 -6.17552e-20)
(-0.00499174 0.00507341 5.57052e-20)
(-0.00320556 0.00431598 -1.37433e-20)
(-0.00160647 0.00317497 -1.22276e-20)
(-0.000443552 0.00181993 1.2259e-20)
(0.000143028 0.000377223 -9.30457e-20)
(-0.0116187 0.000358057 0)
(-0.0116538 0.00145423 0)
(-0.0112598 0.00247116 3.47511e-20)
(-0.0104752 0.00333977 -8.38262e-21)
(-0.00934712 0.003988 -4.96434e-20)
(-0.0079256 0.00435425 7.19568e-21)
(-0.00630538 0.00437191 2.96135e-20)
(-0.00458491 0.0039981 -9.68055e-20)
(-0.00296666 0.00326557 9.17121e-20)
(-0.00154639 0.00225339 6.34639e-22)
(-0.000539087 0.00114886 1.20635e-20)
(-2.10664e-05 0.000120557 0)
(-0.0105007 0.000431714 2.10787e-21)
(-0.0104469 0.00129693 2.75534e-20)
(-0.00999417 0.00208226 -6.34613e-20)
(-0.00918147 0.00272028 0)
(-0.00805929 0.00314566 7.82838e-21)
(-0.00668874 0.00331063 -7.83524e-21)
(-0.00517367 0.00317435 -4.38215e-20)
(-0.00362376 0.00273007 2.03323e-19)
(-0.0022324 0.00204677 -1.01925e-19)
(-0.00109318 0.00122492 0)
(-0.000367825 0.00045816 0)
(-7.39842e-05 -0.000100914 0)
(-0.00778745 0.00034812 8.08575e-21)
(-0.00735785 0.000856977 -3.28557e-20)
(-0.00663451 0.0012608 6.54814e-20)
(-0.00568129 0.00151498 -7.89442e-21)
(-0.00456903 0.00158849 1.54895e-20)
(-0.00337791 0.00147442 3.73208e-20)
(-0.00221196 0.0011858 2.80476e-20)
(-0.0011696 0.000767632 -1.35492e-20)
(-0.000378136 0.000310699 8.71501e-20)
(0.000115557 -8.97032e-05 1.20639e-20)
(0.000255772 -0.000300271 0)
(9.43109e-05 -0.000239878 8.77881e-20)
(0.0195621 0.00784357 -1.12045e-20)
(0.0102135 -0.0103352 -1.22297e-20)
(0.00444396 -0.0133226 1.36354e-20)
(0.000604536 -0.0140829 2.97495e-20)
(-0.00477435 -0.0135305 -3.60559e-20)
(-0.00981491 -0.011065 -5.31835e-20)
(-0.0132862 -0.007212 4.37301e-21)
(-0.0146972 -0.00259399 1.70001e-20)
(-0.0140407 0.00207179 -9.32984e-21)
(-0.0116245 0.00614351 0)
(-0.00813867 0.00907897 0)
(-0.00422384 0.01062 6.39947e-21)
(0.0138272 0.0043778 0)
(0.0068951 -0.0078671 -3.27488e-21)
(0.00204891 -0.00915919 0)
(-0.000841709 -0.00948401 -2.25855e-20)
(-0.00510061 -0.00889826 9.22818e-21)
(-0.00924745 -0.00659246 -2.10685e-20)
(-0.0122373 -0.0029495 7.20771e-20)
(-0.0134724 0.00142673 -7.32701e-21)
(-0.0128683 0.00579475 0)
(-0.0107089 0.00953751 4.23694e-20)
(-0.00755763 0.0122161 0)
(-0.00400215 0.0136622 -6.76962e-21)
(0.00973728 0.00265315 0)
(0.00507944 -0.00591799 1.92974e-20)
(0.000967254 -0.00636184 -4.54849e-21)
(-0.00145984 -0.00657162 0)
(-0.00492154 -0.00594031 -3.37028e-20)
(-0.00830392 -0.00384864 -1.16462e-20)
(-0.0108002 -0.000537659 -4.68063e-20)
(-0.0118628 0.00346434 4.58638e-20)
(-0.0113801 0.00750886 -8.30367e-21)
(-0.0095518 0.0110119 -8.0766e-20)
(-0.00680526 0.0135708 -2.17085e-20)
(-0.00365185 0.0150316 -2.29682e-22)
(0.00671313 0.00163184 1.73256e-20)
(0.0036716 -0.00438913 0)
(0.000521403 -0.00455374 0)
(-0.00158364 -0.00474775 -3.54136e-20)
(-0.00444333 -0.00405319 4.03454e-20)
(-0.00721107 -0.00215809 -1.14283e-20)
(-0.00927481 0.000812834 1.13728e-20)
(-0.0101957 0.00440519 -2.96629e-20)
(-0.00983174 0.0080794 -3.35364e-20)
(-0.00831577 0.0113211 1.09392e-21)
(-0.00597546 0.0137619 2.10694e-20)
(-0.00322469 0.015244 5.23284e-21)
(0.00452578 0.000972727 -1.68845e-20)
(0.00254495 -0.00323776 0)
(0.000290057 -0.00333786 -6.40408e-21)
(-0.00150353 -0.00349166 6.1996e-20)
(-0.00386591 -0.00274603 0)
(-0.00612335 -0.00101995 5.22964e-20)
(-0.00783099 0.00163133 -6.63007e-20)
(-0.00862505 0.00483553 6.29398e-20)
(-0.00835647 0.00814018 2.41e-20)
(-0.00710852 0.0111042 8.05517e-20)
(-0.00513321 0.0133951 0)
(-0.00276301 0.014855 -1.56397e-20)
(0.00303653 0.000554197 -5.05167e-21)
(0.0016916 -0.00237057 2.69546e-20)
(0.000114064 -0.00242902 0)
(-0.00137359 -0.00251031 1.18111e-21)
(-0.00331193 -0.00173722 0)
(-0.00514446 -0.000155695 -1.04782e-20)
(-0.00655016 0.00221028 5.81951e-20)
(-0.00721801 0.00505923 -4.76052e-20)
(-0.00701395 0.00801319 -3.80033e-20)
(-0.00598624 0.010696 -3.46336e-20)
(-0.00432681 0.0128128 1.83654e-20)
(-0.00230179 0.0142084 -4.74176e-21)
(0.00202889 0.000276986 0)
(0.00107628 -0.00172203 -6.6238e-20)
(-3.57425e-05 -0.00170895 -5.71652e-20)
(-0.00124095 -0.00170051 -2.14828e-20)
(-0.00281272 -0.000914085 0)
(-0.00429581 0.000545744 -5.01051e-20)
(-0.00544096 0.00267202 4.50413e-21)
(-0.00598954 0.00520884 -8.48609e-22)
(-0.00582524 0.00784317 3.69486e-20)
(-0.00497608 0.0102563 0)
(-0.00358538 0.0121901 -3.17564e-22)
(-0.00186326 0.013496 1.78542e-22)
(0.00135074 9.30242e-05 4.2737e-20)
(0.000662119 -0.00123748 9.52657e-20)
(-0.000141619 -0.00114212 4.31961e-20)
(-0.00109936 -0.00103846 5.79592e-20)
(-0.00235852 -0.000244468 0)
(-0.00355306 0.00111456 -1.04873e-20)
(-0.0044764 0.00304279 1.6474e-20)
(-0.00491949 0.0053159 7.87898e-22)
(-0.00478179 0.00767124 -6.78003e-21)
(-0.0040792 0.0098384 0)
(-0.00291533 0.0115944 -1.711e-20)
(-0.00145836 0.012801 9.03239e-21)
(0.000896976 -3.78857e-05 1.44173e-21)
(0.00041428 -0.000883026 -4.43673e-20)
(-0.000182839 -0.000716645 0)
(-0.000927193 -0.000533409 -6.73002e-21)
(-0.00192223 0.000257343 -1.21803e-21)
(-0.00287197 0.00152871 3.68013e-20)
(-0.00360973 0.00328745 -3.94101e-20)
(-0.00396475 0.00533535 5.54449e-20)
(-0.0038507 0.00744802 0)
(-0.00327283 0.00939438 3.029e-20)
(-0.00230783 0.0109814 0)
(-0.00108861 0.0120832 -8.5737e-21)
(0.000588185 -0.000145346 -4.19569e-20)
(0.000301453 -0.000657532 5.92624e-21)
(-0.000132503 -0.000463017 -6.26177e-20)
(-0.000689019 -0.000234526 -4.92882e-20)
(-0.00145718 0.000532289 5.61954e-20)
(-0.00220233 0.00171541 -3.85382e-20)
(-0.00278674 0.00332199 1.00087e-20)
(-0.00307524 0.00516996 -4.20141e-20)
(-0.00298958 0.00706483 -6.37939e-21)
(-0.00252841 0.0088074 -5.50973e-20)
(-0.00174812 0.01023 1.19414e-20)
(-0.000751583 0.0112185 8.36075e-21)
(0.000336018 -0.000231846 0)
(0.000241189 -0.000509429 0)
(-5.30882e-05 -0.000325424 4.8787e-20)
(-0.000445126 -5.93345e-05 0)
(-0.00102582 0.000690415 -7.18391e-20)
(-0.00160207 0.00180634 9.12517e-20)
(-0.00206261 0.00328343 2.63659e-20)
(-0.00229528 0.00495217 -4.14625e-20)
(-0.00223368 0.00663662 0)
(-0.00187381 0.0081646 1.18319e-22)
(-0.00125526 0.00939092 -4.59901e-20)
(-0.000455852 0.0102156 0)
(4.28376e-05 -9.01312e-05 3.59528e-20)
(-9.91098e-05 -1.78686e-05 5.43401e-20)
(-0.000345435 0.000304538 -5.68797e-21)
(-0.000629636 0.000752231 0)
(-0.00100729 0.00153399 8.25636e-21)
(-0.0013499 0.00253724 -8.82423e-20)
(-0.0015943 0.00372324 9.43992e-21)
(-0.00167085 0.00495408 5.14842e-20)
(-0.00155018 0.00609723 -5.99526e-21)
(-0.00123988 0.00703191 2.76362e-20)
(-0.000777623 0.00766435 5.92425e-20)
(-0.000223206 0.00794154 0)
(-0.000467391 0.0107513 6.66268e-21)
(0.00282874 0.00964253 7.14688e-21)
(0.00553089 0.00752707 -7.12306e-21)
(0.00768521 0.00462988 -5.29342e-20)
(0.00929018 0.001131 -4.93885e-20)
(0.0101888 -0.00281453 4.60777e-20)
(0.0100606 -0.0068165 1.8187e-20)
(0.00862953 -0.0103323 4.79645e-20)
(0.00588434 -0.0125918 -1.08044e-19)
(0.00198822 -0.0120481 0)
(-0.000649438 -0.00631005 -3.58926e-20)
(-0.00363696 -7.42953e-05 0)
(-0.000535315 0.0139205 -5.75607e-22)
(0.00257017 0.0131548 0)
(0.00521902 0.0115437 0)
(0.00743038 0.00920978 1.88331e-21)
(0.00919397 0.00623749 4.76399e-20)
(0.010361 0.00274082 1.04496e-19)
(0.010642 -0.000927519 5.51112e-20)
(0.00981832 -0.00432214 0)
(0.00787045 -0.00670977 5.39147e-20)
(0.00494269 -0.00735881 -1.11601e-20)
(0.00252011 -0.00532422 -2.24664e-20)
(0.00203874 -0.00329894 -5.56422e-20)
(-0.000504822 0.0154462 -4.75624e-22)
(0.0023764 0.0149713 -6.12986e-21)
(0.0049079 0.0137626 -4.16585e-20)
(0.00708135 0.0119065 8.22489e-20)
(0.00887586 0.00943751 6.52403e-20)
(0.0101537 0.00641749 6.94926e-21)
(0.0106706 0.00308505 -1.08923e-19)
(0.0102048 -0.000200171 -4.70121e-20)
(0.00866415 -0.00278678 5.62599e-20)
(0.006229 -0.00424947 0)
(0.00377788 -0.00372291 4.30031e-20)
(0.00120132 -0.00187009 -2.93873e-21)
(-0.000417188 0.0157957 -3.85835e-22)
(0.00221219 0.0155451 0)
(0.00457316 0.0146277 4.62993e-20)
(0.00663349 0.0131184 -1.1931e-20)
(0.00835433 0.0110425 -4.13778e-20)
(0.00960646 0.00843108 -1.62113e-19)
(0.0101817 0.00543961 8.78062e-20)
(0.00985906 0.00234801 7.68068e-20)
(0.008572 -0.000308922 -1.25226e-19)
(0.00647974 -0.00218823 5.07452e-20)
(0.00411226 -0.00260662 0)
(0.00147155 -0.00174716 4.49503e-20)
(-0.000293793 0.0154863 -1.62128e-20)
(0.00206468 0.015381 0)
(0.00421609 0.0146513 0)
(0.00610568 0.0133672 -3.19814e-20)
(0.00767873 0.0115634 -9.78639e-20)
(0.00881631 0.0092677 8.35871e-20)
(0.00934323 0.00659765 -6.75211e-20)
(0.00907236 0.00376907 6.11048e-20)
(0.00795852 0.0012218 1.09802e-19)
(0.00613565 -0.000773523 1.6402e-21)
(0.00397548 -0.00169866 -4.79832e-20)
(0.00136716 -0.00139767 0)
(-0.000152747 0.014865 5.15162e-21)
(0.0019321 0.0148446 2.03722e-20)
(0.00385384 0.0142359 0)
(0.00554092 0.0131042 0)
(0.00692953 0.0114952 8.51876e-20)
(0.00791613 0.00944549 6.11557e-20)
(0.00835488 0.00706132 0)
(0.00809746 0.00451518 -5.94497e-20)
(0.00711703 0.00216607 -4.08762e-20)
(0.00552116 0.00021162 -6.25983e-20)
(0.00357562 -0.000942806 9.47483e-20)
(0.00116441 -0.00103217 -9.4235e-20)
(-8.61787e-06 0.0141437 -9.59815e-21)
(0.0018132 0.0141709 -2.46916e-20)
(0.00350349 0.0136474 4.87506e-21)
(0.00498357 0.0126321 9.25033e-21)
(0.00618438 0.0111749 -1.80218e-20)
(0.00701454 0.00932294 -5.96464e-20)
(0.00735433 0.00718234 0)
(0.00708941 0.00489476 0)
(0.00620589 0.0027546 -5.39789e-20)
(0.00478915 0.000904058 0)
(0.00303816 -0.000326387 -3.50958e-20)
(0.000904018 -0.000682053 7.98654e-20)
(0.000129191 0.0134194 1.40938e-22)
(0.00170512 0.0134703 -1.86387e-20)
(0.00317242 0.0130082 -3.70202e-20)
(0.00445257 0.0120837 0)
(0.00547245 0.0107495 -8.46953e-21)
(0.00615036 0.0090589 2.43844e-20)
(0.00638627 0.00711651 -3.07321e-20)
(0.00609464 0.00504222 8.56719e-20)
(0.00527262 0.00308607 3.88419e-20)
(0.00399299 0.00135826 0)
(0.00242771 0.000138927 -9.50491e-20)
(0.000621332 -0.000373866 -9.2891e-20)
(0.000254455 0.0126566 1.01759e-22)
(0.00159661 0.0127112 1.81511e-20)
(0.00284776 0.0122893 3.60645e-20)
(0.0039315 0.0114349 -8.58715e-21)
(0.00477044 0.0101999 3.88442e-22)
(0.00529513 0.00863902 8.20226e-21)
(0.00542054 0.00685547 0)
(0.00508364 0.00495551 1.54535e-22)
(0.00429824 0.00316179 1.25858e-20)
(0.00313749 0.00157217 -1.10699e-19)
(0.00177668 0.000431325 9.26168e-20)
(0.000342846 -0.000130684 9.04463e-20)
(0.000356866 0.0117301 1.72077e-20)
(0.00146975 0.0117688 1.73635e-20)
(0.00250254 0.0113661 -3.45598e-20)
(0.00338257 0.0105619 0)
(0.00403416 0.00940426 0)
(0.00439462 0.00794952 4.69715e-20)
(0.00439661 0.00629928 -4.33191e-20)
(0.0040007 0.00455633 -1.63794e-19)
(0.00324669 0.00292913 -1.02253e-19)
(0.00222103 0.00151464 -1.24399e-20)
(0.00111374 0.000524963 1.17674e-20)
(9.4284e-05 2.74984e-05 0)
(0.000433688 0.0106005 -8.35872e-21)
(0.00131081 0.0105497 -1.69394e-20)
(0.00210679 0.0100889 3.37287e-20)
(0.00275127 0.00925774 -8.08913e-21)
(0.003177 0.00810804 8.09391e-21)
(0.00333449 0.00670722 -6.05867e-20)
(0.00318416 0.00516442 5.70422e-20)
(0.00272204 0.00359378 1.06756e-19)
(0.00202298 0.00219408 9.98679e-20)
(0.00119434 0.00105933 9.40859e-20)
(0.000427837 0.000350725 -1.01668e-19)
(-0.000119801 7.43241e-05 1.11503e-20)
(0.000351085 0.00785507 0)
(0.000865366 0.00742165 3.26435e-20)
(0.00127246 0.00668594 0)
(0.00152615 0.0057132 6.37949e-20)
(0.00159524 0.00457687 6.16007e-20)
(0.00147224 0.00336218 0)
(0.00117229 0.00217665 -1.3401e-20)
(0.000743002 0.0011226 2.59733e-20)
(0.000278519 0.000329247 -7.68899e-22)
(-0.000120973 -0.000155689 -1.18052e-20)
(-0.000325837 -0.000278946 1.75173e-19)
(-0.000251708 -0.000101021 0)
)
;

boundaryField
{
    rotor
    {
        type            movingWallVelocity;
        value           nonuniform 0();
    }
    stator
    {
        type            movingWallVelocity;
        value           nonuniform List<vector> 
96
(
(-8.43628e-17 -7.90144e-17 -1.56125e-16)
(-1.49267e-15 -1.225e-15 0)
(1.18272e-15 8.47523e-16 -1.56125e-16)
(0 0 0)
(0 0 0)
(9.39049e-16 4.25477e-16 0)
(0 0 0)
(-5.71877e-16 -1.73477e-16 -1.56125e-16)
(5.52419e-16 1.28806e-16 0)
(0 0 0)
(-2.43668e-16 -2.39992e-17 1.56125e-16)
(1.55958e-16 5.10554e-18 1.56125e-16)
(-3.70957e-18 1.21439e-19 -1.56125e-16)
(0 0 0)
(-4.01478e-16 6.62843e-17 -1.56125e-16)
(5.92299e-16 -1.38105e-16 -1.56125e-16)
(5.71877e-16 -1.73477e-16 0)
(1.09402e-15 -4.11762e-16 -3.1225e-16)
(9.39049e-16 -4.25477e-16 0)
(9.71454e-16 -5.19253e-16 -1.56125e-16)
(-1.12019e-15 6.96582e-16 -1.56125e-16)
(0 0 0)
(-2.45e-15 2.01067e-15 -3.1225e-16)
(-1.24633e-15 1.16731e-15 -1.56125e-16)
(1.16731e-15 -1.24633e-15 2.35996e-32)
(1.00533e-15 -1.225e-15 -1.56125e-16)
(-5.91358e-16 8.2524e-16 -1.56125e-16)
(1.36484e-16 -2.19485e-16 -1.56125e-16)
(-5.19253e-16 9.71454e-16 0)
(4.69524e-16 -1.03626e-15 0)
(4.11762e-16 -1.09402e-15 0)
(0 0 -1.56125e-16)
(0 0 0)
(0 0 0)
(0 0 0)
(1.21439e-19 -3.70957e-18 -1.56125e-16)
(0 0 0)
(0 0 0)
(-3.40852e-17 -2.06451e-16 0)
(-1.38105e-16 -5.92299e-16 -1.56125e-16)
(0 0 0)
(3.09952e-16 8.23524e-16 0)
(4.25477e-16 9.39049e-16 0)
(5.55093e-16 1.03851e-15 0)
(5.60097e-16 9.0071e-16 1.56125e-16)
(-5.91358e-16 -8.2524e-16 0)
(1.00533e-15 1.225e-15 2.49947e-32)
(0 0 -1.56125e-16)
(0 0 0)
(-6.245e-16 6.245e-16 0)
(-1.249e-15 1.249e-15 0)
(0 0 0)
(-6.245e-16 6.245e-16 0)
(6.245e-16 -6.245e-16 -1.56125e-16)
(-1.249e-15 1.249e-15 0)
(-1.249e-15 1.249e-15 0)
(0 0 0)
(0 0 -1.56125e-16)
(0 0 0)
(0 0 0)
(0 0 0)
(6.245e-16 6.245e-16 0)
(-6.245e-16 -6.245e-16 -1.56125e-16)
(6.245e-16 6.245e-16 0)
(0 0 -1.56125e-16)
(6.245e-16 6.245e-16 0)
(6.245e-16 6.245e-16 0)
(0 0 0)
(0 0 -1.56125e-16)
(0 0 -1.56125e-16)
(0 0 0)
(0 0 0)
(0 0 0)
(6.245e-16 6.245e-16 -1.56125e-16)
(-6.245e-16 -6.245e-16 0)
(6.245e-16 6.245e-16 -1.56125e-16)
(0 0 -1.56125e-16)
(0 0 -1.56125e-16)
(6.245e-16 6.245e-16 -1.56125e-16)
(0 0 -1.56125e-16)
(0 0 0)
(0 0 -1.56125e-16)
(0 0 -1.56125e-16)
(1.249e-15 1.249e-15 -1.56125e-16)
(0 0 0)
(6.245e-16 -6.245e-16 -1.56125e-16)
(-6.245e-16 6.245e-16 0)
(6.245e-16 -6.245e-16 -1.56125e-16)