/*--------------------------------*- C++ -*----------------------------------*\
| =========                 |                                                 |
| \\      /  F ield         | OpenFOAM: The Open Source CFD Toolbox           |
|  \\    /   O peration     | Version:  v1806                                 |
|   \\  /    A nd           | Web:      www.OpenFOAM.com                      |
|    \\/     M anipulation  |                                                 |
\*---------------------------------------------------------------------------*/
FoamFile
{
    version     2.0;
    format      ascii;
    class       volScalarField;
    location    "5";
    object      p;
}
// * * * * * * * * * * * * * * * * * * * * * * * * * * * * * * * * * * * * * //

dimensions      [0 2 -2 0 0 0 0];


internalField   nonuniform List<scalar> 
768
(
1.42349e-07
-0.00122215
-0.00232558
-0.00321505
-0.00391105
-0.0043429
-0.00447798
-0.00430207
-0.00383224
-0.00309999
-0.00219592
-0.00126779
3.00095e-05
-0.00106761
-0.00205167
-0.00285738
-0.0034822
-0.00387025
-0.00399272
-0.0038374
-0.00342882
-0.00279613
-0.00201814
-0.00120875
-2.36507e-05
-0.00102563
-0.00189645
-0.0026046
-0.0031486
-0.00348697
-0.00359397
-0.00345597
-0.00310291
-0.00255411
-0.0018774
-0.00116037
-0.000202395
-0.00107807
-0.00182645
-0.00242659
-0.00288767
-0.00317419
-0.00326349
-0.00314994
-0.00282913
-0.00234779
-0.00175396
-0.00111408
-0.000507468
4.62161e-05
0.000545237
0.00106308
0.00157363
0.00204295
0.00242853
0.00270096
0.00262578
0.00227462
0.00170008
0.000943615
-0.000490442
0.000103556
0.000638571
0.00115507
0.00164101
0.00206767
0.00240071
0.0025807
0.00257638
0.00225051
0.00168834
0.000971066
-0.000489354
0.000103412
0.000641592
0.00114453
0.00160403
0.00199761
0.00229533
0.00245678
0.00244384
0.00215443
0.00162825
0.000956057
-0.000493314
7.77286e-05
0.000601446
0.00108364
0.00151482
0.00187736
0.00214708
0.00229615
0.00228645
0.00204973
0.00158863
0.000968586
-4.97259e-05
-0.00116777
-0.00225668
-0.00321107
-0.00395402
-0.00442477
-0.00458403
-0.00441798
-0.00393938
-0.00318501
-0.00224773
-0.00127589
1.01731e-05
-0.00102918
-0.00201719
-0.00286856
-0.00352862
-0.003946
-0.00408632
-0.0039374
-0.00351752
-0.00286199
-0.00205137
-0.00120299
-4.48286e-05
-0.0010068
-0.0018851
-0.00262306
-0.0031937
-0.0035542
-0.00367415
-0.00354061
-0.00317435
-0.00260388
-0.00189737
-0.00114611
-0.000222374
-0.0010753
-0.00182912
-0.00244844
-0.00292932
-0.00323234
-0.00332998
-0.00320933
-0.00288459
-0.00238433
-0.00176398
-0.0010943
-0.000464679
0.000128736
0.000654653
0.00119913
0.00173596
0.00222637
0.00262343
0.00288633
0.00281025
0.00245366
0.00186649
0.00109392
-0.000444299
0.00018285
0.000743282
0.00128313
0.00179076
0.00223494
0.00257824
0.00276111
0.00275144
0.0024214
0.00185071
0.00112045
-0.00044084
0.00018107
0.000743004
0.00126695
0.00174512
0.00215366
0.00246079
0.00262663
0.0026095
0.00231825
0.00178778
0.00110577
-0.000443601
0.000153675
0.000699471
0.0012009
0.00164875
0.00202448
0.00230292
0.002456
0.00244465
0.00220768
0.00174574
0.00111995
-0.000563787
-0.00120615
-0.00180499
-0.00229573
-0.00267843
-0.00291564
-0.00298547
-0.00287867
-0.00259453
-0.00216909
-0.00164323
-0.00106783
-0.00092752
-0.00134448
-0.00180443
-0.00219574
-0.00250925
-0.00270165
-0.00275182
-0.00264908
-0.00239404
-0.00201407
-0.00154428
-0.00102233
-0.00116187
-0.00144645
-0.00180096
-0.00211635
-0.00237074
-0.00252487
-0.00255706
-0.00245631
-0.00222404
-0.00188062
-0.00145505
-0.000980725
-0.00131403
-0.00151702
-0.00179505
-0.00205104
-0.00225772
-0.00237977
-0.00239626
-0.00229643
-0.00208161
-0.00176739
-0.00137791
-0.000942021
-0.00142424
-0.00156899
-0.00178788
-0.00199728
-0.00216595
-0.00226179
-0.00226504
-0.00216548
-0.00196398
-0.00167289
-0.00131252
-0.00090774
-0.00150237
-0.00160824
-0.00178153
-0.00195383
-0.00209224
-0.00216695
-0.00215936
-0.0020597
-0.0018684
-0.00159549
-0.0012583
-0.000878519
-0.00155744
-0.00163761
-0.00177662
-0.00191953
-0.00203396
-0.00209187
-0.00207558
-0.00197572
-0.00179219
-0.00153344
-0.00121448
-0.000854525
-0.00159609
-0.00165914
-0.00177298
-0.00189312
-0.00198886
-0.00203368
-0.00201063
-0.00191052
-0.00173291
-0.00148504
-0.00118018
-0.000835657
-0.00162249
-0.00167422
-0.00177019
-0.00187336
-0.00195504
-0.00199001
-0.00196196
-0.00186163
-0.00168851
-0.00144881
-0.00115456
-0.00082169
-0.00163939
-0.00168387
-0.0017678
-0.00185912
-0.0019309
-0.00195895
-0.00192757
-0.00182709
-0.00165729
-0.0014235
-0.00113687
-0.00081236
-0.0016486
-0.00168874
-0.00176544
-0.00184949
-0.00191513
-0.00193893
-0.00190586
-0.00180527
-0.00163783
-0.00140801
-0.00112642
-0.00080737
-0.00165173
-0.00169002
-0.00176349
-0.00184421
-0.00190693
-0.00192842
-0.00189253
-0.00179457
-0.00162869
-0.00140105
-0.00112209
-0.00080584
-0.000496099
4.4397e-05
0.000544681
0.00100316
0.00140715
0.00174223
0.00198969
0.00212904
0.00212474
0.00194534
0.00160291
0.00112271
-0.0004964
1.14502e-05
0.000484754
0.000919935
0.00129894
0.00161095
0.00184077
0.00197126
0.0019796
0.00185061
0.00162354
0.00135925
-0.000495043
-1.74132e-05
0.00042774
0.000843095
0.00119921
0.00149222
0.00170932
0.00183458
0.00185781
0.00177133
0.00161534
0.00141434
-0.000490049
-4.34892e-05
0.000374666
0.000777534
0.00111156
0.00138911
0.00159805
0.00172323
0.00175936
0.00170785
0.00160494
0.00147933
-0.000484379
-6.33185e-05
0.000336903
0.0007132
0.00103613
0.00130153
0.00150637
0.00163312
0.00168125
0.00165747
0.00159281
0.00151013
-0.000478823
-7.89158e-05
0.000304362
0.000661582
0.000972445
0.00122758
0.00143283
0.00156153
0.00161976
0.00161749
0.00158028
0.00152618
-0.000473959
-9.13324e-05
0.000277319
0.000620161
0.000921559
0.00117172
0.00136872
0.00150583
0.0015717
0.00158602
0.00156942
0.00153313
-0.000470161
-0.000101271
0.000255462
0.0005874
0.000881633
0.00112761
0.0013216
0.00146034
0.00153452
0.00156168
0.00155911
0.00153666
-0.000467647
-0.000109243
0.00023827
0.000562071
0.000851404
0.00109422
0.00128732
0.00142547
0.00150681
0.00154353
0.00155076
0.00153834
-0.000466544
-0.000115635
0.000225207
0.000543089
0.000829938
0.00107082
0.00126238
0.00140116
0.00148755
0.00153102
0.00154493
0.00153935
-0.00046689
-0.000120709
0.000215875
0.000529525
0.000816975
0.0010552
0.00124651
0.0013861
0.00147588
0.00152372
0.00154183
0.00154052
-0.00046802
-0.000123987
0.000210737
0.000523687
0.00080869
0.00104696
0.0012374
0.00137908
0.00147069
0.00152071
0.00154092
0.00154195
-0.00057216
-0.00120768
-0.00181458
-0.00231855
-0.00271568
-0.00296525
-0.00304129
-0.00293206
-0.00263821
-0.00219521
-0.00164562
-0.00104442
-0.000937395
-0.00134856
-0.00181718
-0.00221834
-0.00254196
-0.0027438
-0.0027982
-0.00269356
-0.00242807
-0.0020319
-0.00154057
-0.000996611
-0.00117102
-0.00145419
-0.0018149
-0.00213768
-0.00239994
-0.00256069
-0.00259544
-0.00249187
-0.00224999
-0.0018918
-0.00144721
-0.000952405
-0.00132324
-0.00152627
-0.00180923
-0.002071
-0.00228376
-0.00241041
-0.00242807
-0.00232474
-0.00210096
-0.00177317
-0.00136651
-0.000911667
-0.00143372
-0.00157895
-0.00180188
-0.00201589
-0.00218924
-0.00228821
-0.00229158
-0.00218804
-0.00197804
-0.00167433
-0.00129815
-0.000875766
-0.00151214
-0.00161861
-0.00179519
-0.00197121
-0.0021132
-0.00218996
-0.00218171
-0.00207776
-0.00187826
-0.00159347
-0.00124154
-0.00084526
-0.00156748
-0.00164825
-0.00178991
-0.00193587
-0.00205303
-0.00211216
-0.00209465
-0.00199046
-0.00179877
-0.00152869
-0.00119581
-0.000820262
-0.00160636
-0.00166996
-0.00178599
-0.00190863
-0.00200644
-0.00205186
-0.00202715
-0.00192248
-0.00173696
-0.0014782
-0.00116005
-0.000800631
-0.00163292
-0.00168518
-0.00178297
-0.00188822
-0.00197147
-0.0020066
-0.00197658
-0.00187155
-0.00169068
-0.00144042
-0.00113335
-0.000786111
-0.00164992
-0.00169491
-0.00178041
-0.00187351
-0.0019465
-0.00197441
-0.00194086
-0.00183559
-0.00165814
-0.00141403
-0.00111491
-0.000776411
-0.00165918
-0.0016998
-0.00177792
-0.00186354
-0.00193019
-0.00195367
-0.00191829
-0.00181287
-0.00163786
-0.00139788
-0.00110401
-0.000771219
-0.00166231
-0.00170106
-0.00177588
-0.00185807
-0.0019217
-0.00194276
-0.00190449
-0.00180173
-0.00162832
-0.00139062
-0.00109949
-0.000769622
-0.000445944
0.000118573
0.000639421
0.00111576
0.00153509
0.0018823
0.00213795
0.00228163
0.00227778
0.00209947
0.00175781
0.00127561
-0.000446167
8.39538e-05
0.000576518
0.00102845
0.00142192
0.00174543
0.00198312
0.0021179
0.00212856
0.00200132
0.00177533
0.00150328
-0.000444737
5.34838e-05
0.00051696
0.000948136
0.00131816
0.0016223
0.00184701
0.00197732
0.00200351
0.00191913
0.00176415
0.00156571
-0.000439686
2.60598e-05
0.000461773
0.000879576
0.00122729
0.00151579
0.00173189
0.00186258
0.00190233
0.00185335
0.00175184
0.00162548
-0.000433911
5.13056e-06
0.00042199
0.000812913
0.00114935
0.00142578
0.00163685
0.00176964
0.00182192
0.00180115
0.00173845
0.00165447
-0.000428254
-1.13558e-05
0.000387824
0.000759401
0.00108349
0.00135058
0.00156004
0.00169571
0.00175854
0.00175969
0.00172542
0.00166807
-0.000423315
-2.44926e-05
0.000359447
0.000716337
0.00103078
0.00129178
0.00149526
0.00163831
0.00170903
0.00172684
0.00171257
0.00167468
-0.000419476
-3.5021e-05
0.000336485
0.000682133
0.000989483
0.00124568
0.00144579
0.00159305
0.00167086
0.00170129
0.00170085
0.00167783
-0.000416956
-4.34774e-05
0.000318377
0.000655474
0.000958436
0.00121111
0.00141137
0.00155657
0.00164227
0.00168226
0.00169148
0.00167918
-0.000415879
-5.02598e-05
0.000304576
0.000635108
0.00093682
0.00118721
0.00138589
0.00153133
0.00162235
0.00166913
0.00168499
0.00167994
-0.000416286
-5.56305e-05
0.000294718
0.0006198
0.000924689
0.00117114
0.00136974
0.00151575
0.00161026
0.00166144
0.00168152
0.00168094
-0.000417488
-5.90874e-05
0.00028941
0.000614521
0.000915376
0.00116259
0.00136031
0.00150849
0.00160488
0.00165825
0.00168045
0.0016823
)
;

boundaryField
{
    rotor
    {
        type            zeroGradient;
    }
    stator
    {
        type            zeroGradient;
    }
    AMI1
    {
        type            cyclicAMI;
        value           nonuniform 0();
    }
    AMI2
    {
        type            cyclicAMI;
        value           nonuniform List<scalar> 
48
(
-8.82933e-05
-0.00137326
-0.00252755
-0.00346645
-0.00419318
-0.00464314
-0.00478092
-0.00458855
-0.00407726
-0.00328071
-0.00229886
-0.00130782
-0.000543632
-3.54046e-05
0.000430746
0.000939321
0.00145091
0.00193373
0.00233462
0.00263567
0.00258314
0.00223684
0.00165772
0.000881012
-0.00014429
-0.00130892
-0.00244523
-0.00344479
-0.00422507
-0.00472045
-0.00488719
-0.00470709
-0.00418863
-0.00337045
-0.00235646
-0.0013242
-0.000511147
3.61283e-05
0.000532476
0.00107506
0.00161994
0.0021276
0.00254554
0.00283587
0.00278099
0.0024273
0.00183235
0.00103661
)
;
    }
    front
    {
        type            empty;
    }
    back
    {
        type            empty;
    }
    procBoundary0to1
    {
        type            processor;
        value           nonuniform List<scalar> 8(0.00103883 0.0010523 0.00103498 0.00103653 9.30464e-05 0.000154318 0.000102344 -7.03305e-05);
    }
}


// ************************************************************************* //
