/*--------------------------------*- C++ -*----------------------------------*\
| =========                 |                                                 |
| \\      /  F ield         | OpenFOAM: The Open Source CFD Toolbox           |
|  \\    /   O peration     | Version:  v1806                                 |
|   \\  /    A nd           | Web:      www.OpenFOAM.com                      |
|    \\/     M anipulation  |                                                 |
\*---------------------------------------------------------------------------*/
FoamFile
{
    version     2.0;
    format      ascii;
    class       surfaceScalarField;
    location    "5";
    object      phi;
}
// * * * * * * * * * * * * * * * * * * * * * * * * * * * * * * * * * * * * * //

dimensions      [0 3 -1 0 0 0 0];
oriented        oriented;


internalField   nonuniform List<scalar> 
1460
(
-1.57405e-06
6.076e-07
-1.476e-06
6.27193e-07
-1.39792e-06
5.98237e-07
-1.35049e-06
5.32414e-07
-1.3305e-06
4.11326e-07
-1.33829e-06
2.53966e-07
-1.37127e-06
8.11077e-08
-1.42318e-06
-9.1618e-08
-1.4859e-06
-2.51314e-07
-1.54877e-06
-3.89392e-07
-1.60181e-06
-4.95793e-07
-5.62434e-07
-1.63764e-06
-1.12182e-06
4.72867e-07
-1.02288e-06
5.28244e-07
-9.43383e-07
5.18744e-07
-8.82395e-07
4.71426e-07
-8.44965e-07
3.73895e-07
-8.35429e-07
2.4443e-07
-8.51407e-07
9.70855e-08
-8.86867e-07
-5.6158e-08
-9.35183e-07
-2.02998e-07
-9.89983e-07
-3.34592e-07
-1.04541e-06
-4.40365e-07
-5.10969e-07
-1.09688e-06
-7.42652e-07
3.45926e-07
-6.76403e-07
4.61995e-07
-6.1608e-07
4.58421e-07
-5.55175e-07
4.10522e-07
-5.09369e-07
3.28089e-07
-4.84884e-07
2.19946e-07
-4.83147e-07
9.53484e-08
-5.01128e-07
-3.8177e-08
-5.3643e-07
-1.67696e-07
-5.84292e-07
-2.86729e-07
-6.40425e-07
-3.84232e-07
-4.51663e-07
-6.99731e-07
-4.15903e-07
2.9619e-07
-3.9213e-07
4.38222e-07
-3.5267e-07
4.18961e-07
-3.02196e-07
3.60048e-07
-2.59685e-07
2.85578e-07
-2.3241e-07
1.9267e-07
-2.23488e-07
8.64264e-08
-2.33694e-07
-2.79713e-08
-2.60609e-07
-1.40781e-07
-3.02336e-07
-2.45002e-07
-3.55022e-07
-3.31547e-07
-4.13668e-07
-3.93016e-07
-1.6606e-06
-5.91257e-07
-1.68506e-06
-5.88168e-07
-1.71914e-06
-5.52309e-07
-1.76289e-06
-4.83984e-07
-1.81247e-06
-3.88136e-07
-1.86143e-06
-2.68916e-07
-1.90656e-06
-1.26156e-07
-1.93326e-06
3.02938e-08
-1.93848e-06
2.03219e-07
-1.90753e-06
3.58736e-07
-1.83025e-06
4.75052e-07
5.48304e-07
-1.70634e-06
-1.14399e-06
-5.44138e-07
-1.19036e-06
-5.41802e-07
-1.2379e-06
-5.04768e-07
-1.28652e-06
-4.35363e-07
-1.33439e-06
-3.40268e-07
-1.37566e-06
-2.27646e-07
-1.40492e-06
-9.68928e-08
-1.42783e-06
5.31997e-08
-1.44543e-06
2.20823e-07
-1.44451e-06
3.57808e-07
-1.39451e-06
4.25061e-07
4.28085e-07
-1.27429e-06
-7.58397e-07
-4.85473e-07
-8.14519e-07
-4.85679e-07
-8.66156e-07
-4.53131e-07
-9.11618e-07
-3.89901e-07
-9.51315e-07
-3.00571e-07
-9.84475e-07
-1.94486e-07
-1.00497e-06
-7.64021e-08
-1.01074e-06
5.89725e-08
-1.01593e-06
2.26013e-07
-1.02277e-06
3.64654e-07
-9.95229e-07
3.97515e-07
3.21508e-07
-8.88652e-07
-4.7351e-07
-4.25631e-07
-5.30722e-07
-4.28467e-07
-5.81981e-07
-4.01872e-07
-6.23666e-07
-3.48216e-07
-6.54302e-07
-2.69935e-07
-6.74715e-07
-1.74073e-07
-6.83932e-07
-6.71858e-08
-6.76526e-07
5.1567e-08
-6.54767e-07
2.04254e-07
-6.37962e-07
3.47849e-07
-6.01133e-07
3.60686e-07
-4.90861e-07
2.11236e-07
-1.57578e-06
6.21493e-07
-1.47624e-06
6.77343e-07
-1.40241e-06
6.57387e-07
-1.35429e-06
5.70609e-07
-1.33358e-06
4.33331e-07
-1.34004e-06
2.63822e-07
-1.37132e-06
8.06698e-08
-1.42185e-06
-1.01338e-07
-1.48338e-06
-2.70133e-07
-1.54567e-06
-4.15095e-07
-1.59914e-06
-5.24735e-07
-5.89938e-07
-1.63632e-06
-1.13051e-06
4.77708e-07
-1.02633e-06
5.73164e-07
-9.39642e-07
5.70698e-07
-8.73509e-07
5.04475e-07
-8.34949e-07
3.94771e-07
-8.2513e-07
2.54003e-07
-8.41243e-07
9.6783e-08
-8.77298e-07
-6.52821e-08
-9.26783e-07
-2.20649e-07
-9.83747e-07
-3.58132e-07
-1.0421e-06
-4.66378e-07
-5.35393e-07
-1.09665e-06
-7.56032e-07
3.45088e-07
-6.80786e-07
4.97918e-07
-6.09344e-07
4.99256e-07
-5.42917e-07
4.38048e-07
-4.94788e-07
3.46643e-07
-4.69567e-07
2.28782e-07
-4.68132e-07
9.53477e-08
-4.87668e-07
-4.5746e-08
-5.25285e-07
-1.83032e-07
-5.76596e-07
-3.06821e-07
-6.36578e-07
-4.06396e-07
-4.72555e-07
-6.99415e-07
-4.31223e-07
2.8545e-07
-3.97202e-07
4.63897e-07
-3.47201e-07
4.49255e-07
-2.91146e-07
3.81993e-07
-2.45577e-07
3.01074e-07
-2.17007e-07
2.00212e-07
-2.08407e-07
8.67474e-08
-2.19459e-07
-3.46939e-08
-2.49131e-07
-1.5336e-07
-2.94195e-07
-2.61757e-07
-3.50445e-07
-3.50146e-07
-4.12214e-07
-4.10786e-07
-1.66048e-06
-6.13059e-07
-1.6856e-06
-6.0282e-07
-1.72025e-06
-5.60462e-07
-1.76421e-06
-4.86686e-07
-1.81334e-06
-3.86245e-07
-1.86106e-06
-2.63038e-07
-1.90403e-06
-1.17144e-07
-1.92822e-06
4.05822e-08
-1.93106e-06
2.13611e-07
-1.89804e-06
3.67591e-07
-1.82009e-06
4.8149e-07
5.49711e-07
-1.14606e-06
-5.63653e-07
-1.19363e-06
-5.55241e-07
-1.24144e-06
-5.12652e-07
-1.28945e-06
-4.38683e-07
-1.33571e-06
-3.39986e-07
-1.3744e-06
-2.24347e-07
-1.40064e-06
-9.09052e-08
-1.42006e-06
6.00006e-08
-1.4349e-06
2.2845e-07
-1.4321e-06
3.64797e-07
-1.38232e-06
4.31707e-07
4.32404e-07
-7.60496e-07
-5.02572e-07
-8.17949e-07
-4.97788e-07
-8.6985e-07
-4.60751e-07
-9.14809e-07
-3.93724e-07
-9.53074e-07
-3.01721e-07
-9.83776e-07
-1.93645e-07
-1.00073e-06
-7.39465e-08
-1.00282e-06
6.20901e-08
-1.00387e-06
2.29496e-07
-1.00804e-06
3.68971e-07
-9.80976e-07
4.04639e-07
3.2995e-07
-4.74324e-07
-4.40461e-07
-5.32852e-07
-4.3926e-07
-5.84518e-07
-4.09085e-07
-6.26071e-07
-3.52171e-07
-6.55971e-07
-2.7182e-07
-6.74952e-07
-1.74664e-07
-6.81927e-07
-6.6971e-08
-6.71787e-07
5.195e-08
-6.4677e-07
2.04479e-07
-6.27008e-07
3.49209e-07
-5.90122e-07
3.67753e-07
2.23152e-07
-1.20585e-07
4.16775e-07
-1.70162e-07
4.87799e-07
-1.5206e-07
4.00859e-07
-1.10571e-07
3.18558e-07
-7.30693e-08
2.48077e-07
-4.85747e-08
1.68176e-07
-3.98218e-08
7.76736e-08
-4.74895e-08
-2.03035e-08
-7.02115e-08
-1.18059e-07
-1.06558e-07
-2.08655e-07
-1.53471e-07
-2.84633e-07
-3.39572e-07
-2.06915e-07
-1.63635e-08
4.33139e-07
-3.27155e-08
5.04151e-07
-1.34636e-08
3.81608e-07
2.10453e-08
2.84049e-07
5.64187e-08
2.12704e-07
8.0574e-08
1.4402e-07
9.01241e-08
6.81235e-08
8.44202e-08
-1.45996e-08
6.48215e-08
-9.846e-08
3.29007e-08
-1.76735e-07
-8.79322e-09
-2.42939e-07
-2.91462e-07
-5.69029e-08
3.30835e-08
4.00055e-07
5.13038e-08
4.85931e-07
7.7351e-08
3.5556e-07
1.09458e-07
2.51942e-07
1.41811e-07
1.8035e-07
1.64891e-07
1.20941e-07
1.74784e-07
5.82305e-08
1.70701e-07
-1.05165e-08
1.53635e-07
-8.13931e-08
1.25457e-07
-1.48557e-07
8.81487e-08
-2.05631e-07
-2.48003e-07
4.4689e-08
5.6644e-08
3.43411e-07
1.02519e-07
4.40056e-07
1.32935e-07
3.25145e-07
1.61879e-07
2.22998e-07
1.89961e-07
1.52267e-07
2.11279e-07
9.96233e-08
2.21622e-07
4.78873e-08
2.19566e-07
-8.46034e-09
2.05707e-07
-6.75344e-08
1.8138e-07
-1.2423e-07
1.48644e-07
-1.72895e-07
-2.09363e-07
1.10005e-07
6.11412e-08
2.8227e-07
1.22978e-07
3.78219e-07
1.60523e-07
2.876e-07
1.8892e-07
1.94601e-07
2.13339e-07
1.27849e-07
2.32022e-07
8.09405e-08
2.42097e-07
3.78118e-08
2.41721e-07
-8.08372e-09
2.30771e-07
-5.65849e-08
2.10161e-07
-1.03619e-07
1.81704e-07
-1.44438e-07
-1.75248e-07
1.47589e-07
5.71723e-08
2.25098e-07
1.24347e-07
3.11045e-07
1.68246e-07
2.437e-07
1.97981e-07
1.64867e-07
2.20292e-07
1.05537e-07
2.36795e-07
6.44373e-08
2.4599e-07
2.86175e-08
2.465e-07
-8.594e-09
2.37803e-07
-4.78882e-08
2.20363e-07
-8.61785e-08
1.95573e-07
-1.19648e-07
-1.45042e-07
1.65367e-07
5.06497e-08
1.74448e-07
1.16744e-07
2.44951e-07
1.64151e-07
1.96293e-07
1.95673e-07
1.33345e-07
2.17167e-07
8.40434e-08
2.32067e-07
4.95374e-08
2.40233e-07
2.04506e-08
2.41039e-07
-9.39911e-09
2.33729e-07
-4.0578e-08
2.18571e-07
-7.10215e-08
1.96598e-07
-9.7675e-08
-1.17864e-07
1.69421e-07
4.44961e-08
1.29952e-07
1.06682e-07
1.82765e-07
1.54753e-07
1.48222e-07
1.8696e-07
1.01138e-07
2.0793e-07
6.30737e-08
2.21383e-07
3.60849e-08
2.28565e-07
1.32685e-08
2.29093e-07
-9.92684e-09
2.22483e-07
-3.39684e-08
2.08692e-07
-5.72306e-08
1.88571e-07
-7.75542e-08
-9.28001e-08
1.63507e-07
3.94817e-08
9.04701e-08
9.67204e-08
1.25527e-07
1.42909e-07
1.02033e-07
1.74121e-07
6.99262e-08
1.93863e-07
4.33318e-08
2.05959e-07
2.39888e-08
2.12051e-07
7.17616e-09
2.11937e-07
-9.81306e-09
2.05339e-07
-2.73701e-08
1.92188e-07
-4.40799e-08
1.73107e-07
-5.84725e-08
-6.9034e-08
1.49341e-07
3.50814e-08
5.53888e-08
8.63828e-08
7.42254e-08
1.28359e-07
6.00571e-08
1.56881e-07
4.14036e-08
1.74628e-07
2.5585e-08
1.8532e-07
1.32974e-08
1.90267e-07
2.22954e-09
1.89503e-07
-9.04926e-09
1.82558e-07
-2.0425e-08
1.69486e-07
-3.10085e-08
1.50841e-07
-3.98272e-08
-4.59747e-08
1.27782e-07
3.0879e-08
2.45098e-08
7.4534e-08
3.05705e-08
1.10321e-07
2.42706e-08
1.34869e-07
1.68556e-08
1.50475e-07
9.9782e-09
1.5973e-07
4.04316e-09
1.63412e-07
-1.45281e-09
1.61388e-07
-7.02543e-09
1.53295e-07
-1.23318e-08
1.39229e-07
-1.69427e-08
1.1985e-07
-2.04475e-08
-2.2483e-08
9.63582e-08
2.45098e-08
5.50803e-08
7.93509e-08
9.62065e-08
1.06185e-07
1.10228e-07
1.08775e-07
1.0175e-07
8.94179e-08
7.24751e-08
5.20276e-08
2.95446e-08
-2.62845e-07
-3.69701e-07
-3.17004e-07
-3.74308e-07
-3.65872e-07
-3.53003e-07
-4.05115e-07
-3.08973e-07
-4.31907e-07
-2.43143e-07
-4.44658e-07
-1.61321e-07
-4.42982e-07
-6.88621e-08
-4.22291e-07
3.08763e-08
-3.64042e-07
1.46005e-07
-2.70302e-07
2.54108e-07
-1.65043e-07
2.55427e-07
4.61929e-08
-1.07856e-07
-3.18748e-07
-1.58781e-07
-3.23384e-07
-2.0473e-07
-3.07053e-07
-2.42347e-07
-2.71356e-07
-2.68498e-07
-2.16992e-07
-2.80207e-07
-1.49613e-07
-2.7594e-07
-7.31284e-08
-2.52847e-07
7.78272e-09
-1.9835e-07
9.15086e-08
-1.05603e-07
1.61361e-07
-1.81678e-08
1.67992e-07
2.80251e-08
-1.36259e-09
-2.72696e-07
-4.67599e-08
-2.77987e-07
-8.92283e-08
-2.64585e-07
-1.25331e-07
-2.35254e-07
-1.51185e-07
-1.91138e-07
-1.64785e-07
-1.36013e-07
-1.63775e-07
-7.41386e-08
-1.46193e-07
-9.79902e-09
-1.06616e-07
5.19316e-08
-4.36695e-08
9.84143e-08
1.3563e-08
1.1076e-07
4.15882e-08
6.82737e-08
-2.30965e-07
2.67409e-08
-2.36454e-07
-1.08677e-08
-2.26976e-07
-4.4929e-08
-2.01192e-07
-7.07202e-08
-1.65347e-07
-8.60516e-08
-1.20682e-07
-8.94716e-08
-7.07185e-08
-7.97435e-08
-1.95271e-08
-5.54074e-08
2.75955e-08
-1.94857e-08
6.24927e-08
1.18002e-08
7.9474e-08
5.33883e-08
1.10333e-07
-1.93709e-07
7.26221e-08
-1.98743e-07
3.66296e-08
-1.90984e-07
5.94113e-09
-1.70504e-07
-1.82809e-08
-1.41125e-07
-3.51398e-08
-1.03823e-07
-4.21622e-08
-6.36961e-08
-3.95121e-08
-2.21772e-08
-2.69236e-08
1.5007e-08
-8.14909e-09
4.37182e-08
7.52833e-09
6.37966e-08
6.09167e-08
1.31954e-07
-1.60296e-07
9.77254e-08
-1.64514e-07
6.4776e-08
-1.58034e-07
3.56918e-08
-1.4142e-07
1.18623e-08
-1.17295e-07
-4.53194e-09
-8.74285e-08
-1.49289e-08
-5.32992e-08
-1.69569e-08
-2.01492e-08
-1.26843e-08
1.07344e-08
-4.06731e-09
3.51012e-08
2.83817e-09
5.68912e-08
6.37549e-08
1.3903e-07
-1.29906e-07
1.0754e-07
-1.33024e-07
7.70018e-08
-1.27497e-07
4.94619e-08
-1.1388e-07
2.6291e-08
-9.41242e-08
8.60001e-09
-6.97375e-08
-2.26231e-09
-4.24368e-08
-7.74369e-09
-1.46678e-08
-7.93149e-09
1.09223e-08
-4.82003e-09
3.19898e-08
-1.20279e-09
5.3274e-08
6.25521e-08
1.35254e-07
-1.01652e-07
1.05757e-07
-1.03527e-07
7.69659e-08
-9.87055e-08
5.06393e-08
-8.75531e-08
2.81502e-08
-7.1635e-08
1.04714e-08
-5.20586e-08
-1.5414e-09
-3.0424e-08
-8.2184e-09
-7.99073e-09
-1.04036e-08
1.31074e-08
-9.09309e-09
3.06794e-08
-4.97797e-09
4.91589e-08
5.75742e-08
1.22508e-07
-7.48194e-08
9.4375e-08
-7.53938e-08
6.68764e-08
-7.12069e-08
4.15601e-08
-6.22367e-08
1.98417e-08
-4.99166e-08
2.71167e-09
-3.49286e-08
-9.15358e-09
-1.85588e-08
-1.59735e-08
-1.17079e-09
-1.78502e-08
1.49842e-08
-1.58244e-08
2.86536e-08
-9.19357e-09
4.25281e-08
4.83806e-08
1.01794e-07
-4.8832e-08
7.45814e-08
-4.81808e-08
4.80674e-08
-4.46929e-08
2.37041e-08
-3.78734e-08
3.13941e-09
-2.93519e-08
-1.26783e-08
-1.91108e-08
-2.36948e-08
-7.54229e-09
-2.89031e-08
4.03759e-09
-2.86447e-08
1.47257e-08
-2.38074e-08
2.38162e-08
-1.34495e-08
3.21702e-08
3.49312e-08
7.03637e-08
-2.28375e-08
4.34371e-08
-2.12541e-08
1.78277e-08
-1.90835e-08
-4.6049e-09
-1.54408e-08
-2.33785e-08
-1.05782e-08
-3.71924e-08
-5.29687e-09
-4.49994e-08
2.64747e-10
-4.65644e-08
5.60259e-09
-4.22219e-08
1.03833e-08
-3.2595e-08
1.41893e-08
-1.75489e-08
1.71241e-08
1.73823e-08
6.70714e-09
-1.4547e-08
-3.36304e-08
-4.90712e-08
-5.96495e-08
-6.49463e-08
-6.46816e-08
-5.9079e-08
-4.86957e-08
-3.45064e-08
-1.73823e-08
-1.28295e-07
4.13745e-07
-1.73493e-07
5.09095e-07
-1.47826e-07
4.23589e-07
-1.01226e-07
3.35392e-07
-6.08073e-08
2.60656e-07
-3.50081e-08
1.74412e-07
-2.63954e-08
7.81348e-08
-3.52466e-08
-2.58426e-08
-5.99705e-08
-1.28636e-07
-9.86525e-08
-2.23075e-07
-1.48379e-07
-3.0042e-07
-3.5457e-07
-2.04594e-07
-2.11999e-08
4.34944e-07
-3.44683e-08
5.22364e-07
-9.76422e-09
3.98885e-07
2.86268e-08
2.97001e-07
6.75463e-08
2.21736e-07
9.30636e-08
1.48895e-07
1.02862e-07
6.8336e-08
9.61195e-08
-1.90997e-08
7.46695e-08
-1.07186e-07
4.01961e-08
-1.88602e-07
-4.10172e-09
-2.56122e-07
-3.04229e-07
-5.44433e-08
3.00779e-08
4.04867e-07
5.09998e-08
5.01442e-07
8.144e-08
3.68445e-07
1.16457e-07
2.61984e-07
1.50942e-07
1.87251e-07
1.75324e-07
1.24513e-07
1.8549e-07
5.81707e-08
1.80659e-07
-1.42694e-08
1.62199e-07
-8.87256e-08
1.31866e-07
-1.58269e-07
9.2302e-08
-2.16558e-07
-2.58689e-07
4.67625e-08
5.56605e-08
3.49206e-07
1.03944e-07
4.53158e-07
1.37168e-07
3.35221e-07
1.6841e-07
2.30742e-07
1.98074e-07
1.57587e-07
2.20361e-07
1.02227e-07
2.30866e-07
4.76653e-08
2.28243e-07
-1.1646e-08
2.13058e-07
-7.35413e-08
1.86951e-07
-1.32161e-07
1.52291e-07
-1.81897e-07
-2.18231e-07
1.11833e-07
6.14984e-08
2.87708e-07
1.25643e-07
3.89014e-07
1.65102e-07
2.95762e-07
1.95068e-07
2.00776e-07
2.20644e-07
1.32011e-07
2.39951e-07
8.29194e-08
2.50089e-07
3.75279e-08
2.49166e-07
-1.07236e-08
2.37099e-07
-6.14737e-08
2.15006e-07
-1.10069e-07
1.84876e-07
-1.51767e-07
-1.82575e-07
1.4922e-07
5.80673e-08
2.2964e-07
1.2748e-07
3.19601e-07
1.72905e-07
2.50337e-07
2.03842e-07
1.69838e-07
2.26951e-07
1.08902e-07
2.43845e-07
6.60253e-08
2.53009e-07
2.83646e-08
2.53035e-07
-1.07496e-08
2.43365e-07
-5.18037e-08
2.24652e-07
-9.13566e-08
1.98441e-07
-1.25555e-07
-1.50982e-07
1.66848e-07
5.15969e-08
1.78044e-07
1.19727e-07
2.5147e-07
1.68529e-07
2.01535e-07
2.01017e-07
1.37351e-07
2.23195e-07
8.67241e-08
2.38388e-07
5.08326e-08
2.46508e-07
2.0244e-08
2.46849e-07
-1.10907e-08
2.38697e-07
-4.36511e-08
2.22442e-07
-7.51017e-08
1.99214e-07
-1.02328e-07
-1.22577e-07
1.7081e-07
4.53511e-08
1.32692e-07
1.09292e-07
1.8753e-07
1.58631e-07
1.52196e-07
1.91777e-07
1.04205e-07
2.13319e-07
6.51816e-08
2.27115e-07
3.70365e-08
2.34255e-07
1.31049e-08
2.34337e-07
-1.11734e-08
2.26992e-07
-3.63056e-08
2.12234e-07
-6.03434e-08
1.9101e-07
-8.11045e-08
-9.63967e-08
1.6483e-07
4.02181e-08
9.24743e-08
9.89346e-08
1.28813e-07
1.46291e-07
1.04839e-07
1.78399e-07
7.20967e-08
1.98736e-07
4.48454e-08
2.11148e-07
2.46238e-08
2.17161e-07
7.09175e-09
2.16735e-07
-1.07471e-08
2.0949e-07
-2.906e-08
1.9548e-07
-4.63335e-08
1.75397e-07
-6.10219e-08
-7.16252e-08
1.50626e-07
3.577e-08
5.67043e-08
8.83159e-08
7.62674e-08
1.31421e-07
6.17342e-08
1.60711e-07
4.28061e-08
1.79095e-07
2.64617e-08
1.90026e-07
1.3693e-08
1.94996e-07
2.12172e-09
1.9394e-07
-9.69121e-09
1.86438e-07
-2.15583e-08
1.72587e-07
-3.24824e-08
1.53039e-07
-4.14732e-08
-4.76072e-08
1.29021e-07
3.15417e-08
2.51627e-08
7.63294e-08
3.14797e-08
1.13062e-07
2.5002e-08
1.3842e-07
1.74473e-08
1.54579e-07
1.03031e-08
1.64113e-07
4.15954e-09
1.67803e-07
-1.56897e-09
1.65511e-07
-7.39895e-09
1.56874e-07
-1.2921e-08
1.42052e-07
-1.76609e-08
1.21787e-07
-2.12081e-08
-2.32212e-08
9.74013e-08
2.51627e-08
5.66423e-08
8.16443e-08
9.90916e-08
1.09395e-07
1.13554e-07
1.11985e-07
1.04586e-07
9.16652e-08
7.40043e-08
5.27962e-08
2.95751e-08
-2.62509e-07
-3.82547e-07
-3.18009e-07
-3.8376e-07
-3.67388e-07
-3.59706e-07
-4.06774e-07
-3.12785e-07
-4.33374e-07
-2.4522e-07
-4.45613e-07
-1.62426e-07
-4.43083e-07
-6.95001e-08
-4.21377e-07
3.02435e-08
-3.6255e-07
1.45653e-07
-2.68998e-07
2.55656e-07
-1.63865e-07
2.6262e-07
5.92873e-08
-1.07489e-07
-3.29501e-07
-1.59191e-07
-3.32059e-07
-2.05932e-07
-3.12965e-07
-2.43863e-07
-2.74853e-07
-2.69895e-07
-2.19189e-07
-2.8169e-07
-1.5063e-07
-2.77337e-07
-7.38532e-08
-2.5429e-07
7.19629e-09
-2.0002e-07
9.13825e-08
-1.07663e-07
1.633e-07
-1.88631e-08
1.7382e-07
4.04241e-08
-7.92217e-10
-2.81946e-07
-4.73742e-08
-2.85477e-07
-9.05137e-08
-2.69825e-07
-1.26848e-07
-2.38519e-07
-1.53039e-07
-1.92997e-07
-1.66534e-07
-1.37136e-07
-1.65679e-07
-7.47079e-08
-1.48429e-07
-1.00536e-08
-1.09347e-07
5.23007e-08
-4.68829e-08
1.00835e-07
1.05161e-08
1.16421e-07
5.09402e-08
6.86907e-08
-2.38804e-07
2.60669e-08
-2.42853e-07
-1.22315e-08
-2.31527e-07
-4.66456e-08
-2.04105e-07
-7.25681e-08
-1.67075e-07
-8.80053e-08
-1.21699e-07
-9.16562e-08
-7.10569e-08
-8.21704e-08
-1.95394e-08
-5.81609e-08
2.82912e-08
-2.22674e-08
6.49418e-08
9.78808e-09
8.43653e-08
6.07283e-08
1.10666e-07
-2.00249e-07
7.19452e-08
-2.04133e-07
3.53041e-08
-1.94885e-07
4.23357e-09
-1.73034e-07
-2.02165e-08
-1.42625e-07
-3.71962e-08
-1.04719e-07
-4.44219e-08
-6.38311e-08
-4.17192e-08
-2.2242e-08
-2.94765e-08
1.60485e-08
-1.05356e-08
4.60009e-08
5.84676e-09
6.7983e-08
6.65751e-08
1.3227e-07
-1.65672e-07
9.708e-08
-1.68943e-07
6.34904e-08
-1.61296e-07
3.40043e-08
-1.43548e-07
9.96689e-09
-1.18587e-07
-6.77742e-09
-8.79749e-08
-1.69152e-08
-5.36933e-08
-1.93818e-08
-1.97755e-08
-1.4908e-08
1.15748e-08
-6.08752e-09
3.71804e-08
1.36386e-09
6.05316e-08
6.79389e-08
1.39346e-07
-1.34207e-07
1.06975e-07
-1.36572e-07
7.57928e-08
-1.30113e-07
4.78443e-08
-1.156e-07
2.44464e-08
-9.51894e-08
6.6851e-09
-7.02137e-08
-4.521e-09
-4.24872e-08
-9.73526e-09
-1.45612e-08
-1.00058e-08
1.18454e-08
-6.53312e-09
3.37077e-08
-1.98615e-09
5.59847e-08
6.59528e-08
1.35573e-07
-1.04951e-07
1.05272e-07
-1.06271e-07
7.58392e-08
-1.00681e-07
4.91029e-08
-8.88632e-08
2.63787e-08
-7.24652e-08
8.60504e-09
-5.244e-08
-3.23385e-09
-3.06483e-08
-1.00635e-08
-7.73156e-09
-1.20986e-08
1.38806e-08
-1.06144e-08
3.22235e-08
-5.74263e-09
5.11129e-08
6.02102e-08
1.22869e-07
-7.71936e-08
9.39857e-08
-7.73879e-08
6.58556e-08
-7.25509e-08
4.0085e-08
-6.30926e-08
1.81391e-08
-5.05192e-08
8.93636e-10
-3.51945e-08
-1.09576e-08
-1.8797e-08
-1.77367e-08
-9.5242e-10
-1.94982e-08
1.5642e-08
-1.7089e-08
2.98144e-08
-9.94324e-09
4.39672e-08
5.0267e-08
1.02183e-07
-5.03565e-08
7.42281e-08
-4.94325e-08
4.71152e-08
-4.54379e-08
2.22478e-08
-3.82251e-08
1.50205e-09
-2.97735e-08
-1.43067e-08
-1.93858e-08
-2.54937e-08
-7.60998e-09
-3.069e-08
4.24391e-09
-3.0357e-08
1.5309e-08
-2.5064e-08
2.45214e-08
-1.419e-08
3.30932e-08
3.6077e-08
7.05391e-08
-2.34942e-08
4.29547e-08
-2.18482e-08
1.67958e-08
-1.9279e-08
-5.69331e-09
-1.5736e-08
-2.48805e-08
-1.05863e-08
-3.89597e-08
-5.30653e-09
-4.69025e-08
3.32861e-10
-4.84392e-08
5.78069e-09
-4.38318e-08
1.07015e-08
-3.38172e-08
1.45069e-08
-1.82288e-08
1.75048e-08
1.78483e-08
6.08084e-09
-1.57673e-08
-3.50463e-08
-5.07823e-08
-6.13686e-08
-6.66751e-08
-6.63423e-08
-6.05616e-08
-4.986e-08
-3.53531e-08
-1.78483e-08
)
;

boundaryField
{
    rotor
    {
        type            calculated;
        value           nonuniform 0();
    }
    stator
    {
        type            calculated;
        value           nonuniform List<scalar> 
96
(
-4.48804e-35
1.20371e-35
6.01853e-36
0
0
2.40741e-35
0
0
7.52316e-36
0
-1.80262e-35
-5.43666e-38
-4.51992e-35
0
-3.08744e-35
0
-1.50463e-36
-1.17549e-37
9.0278e-36
2.89172e-36
4.80307e-35
0
1.20371e-35
5.90098e-36
1.20371e-35
2.39566e-35
6.01853e-36
3.0845e-35
-9.0278e-36
-9.0278e-36
0
0
0
0
0
2.89612e-35
0
0
-4.5139e-36
-1.56341e-36
0
-1.80556e-35
2.40741e-35
0
-1.20371e-35
6.01853e-36
-3.61112e-35
0
0
-3.00927e-36
-3.00927e-36
0
3.00927e-36
-4.5139e-36
0
6.01853e-36
0
0
0
0
0
4.5139e-36
-1.50463e-36
4.5139e-36
0
4.5139e-36
-3.00927e-36
0
0
0
0
0
0
-4.5139e-36
1.50463e-36
-4.5139e-36
0
0
3.00927e-36
0
0
0
0
6.01853e-36
0
4.5139e-36
-1.50463e-36
4.5139e-36
0
0
-3.00927e-36
0
0
0
0
-6.01853e-36
)
;
    }
    AMI1
    {
        type            cyclicAMI;
        value           nonuniform 0();
    }
    AMI2
    {
        type            cyclicAMI;
        value           nonuniform List<scalar> 
48
(
-7.24217e-07
-7.25239e-07
-6.76321e-07
-5.79847e-07
-4.31316e-07
-2.46166e-07
-4.81303e-08
1.43529e-07
3.14029e-07
4.52264e-07
5.4883e-07
5.98268e-07
6.14213e-07
6.12627e-07
5.86398e-07
5.27725e-07
4.3772e-07
3.17876e-07
1.71283e-07
-3.58689e-09
-1.98003e-07
-3.8969e-07
-5.52326e-07
-6.72214e-07
-7.5205e-07
-7.76889e-07
-7.31215e-07
-6.18725e-07
-4.54041e-07
-2.57366e-07
-4.93872e-08
1.51866e-07
3.31657e-07
4.77391e-07
5.78202e-07
6.27118e-07
6.37221e-07
6.27938e-07
5.95114e-07
5.3065e-07
4.35376e-07
3.10753e-07
1.60119e-07
-1.63967e-08
-2.10768e-07
-4.00615e-07
-5.59442e-07
-6.72754e-07
)
;
    }
    front
    {
        type            empty;
        value           nonuniform 0();
    }
    back
    {
        type            empty;
        value           nonuniform 0();
    }
    procBoundary0to1
    {
        type            processor;
        value           nonuniform List<scalar> 8(1.69065e-06 1.25656e-06 8.69593e-07 4.65638e-07 -1.69704e-06 -1.26501e-06 -8.78521e-07 -4.83325e-07);
    }
}


// ************************************************************************* //
