/*--------------------------------*- C++ -*----------------------------------*\
| =========                 |                                                 |
| \\      /  F ield         | OpenFOAM: The Open Source CFD Toolbox           |
|  \\    /   O peration     | Version:  v1806                                 |
|   \\  /    A nd           | Web:      www.OpenFOAM.com                      |
|    \\/     M anipulation  |                                                 |
\*---------------------------------------------------------------------------*/
FoamFile
{
    version     2.0;
    format      ascii;
    class       surfaceVectorField;
    location    "5";
    object      Uf;
}
// * * * * * * * * * * * * * * * * * * * * * * * * * * * * * * * * * * * * * //

dimensions      [0 1 -1 0 0 0 0];


internalField   nonuniform List<vector> 
1460
(
(0.0583316 0.0289771 4.03683e-21)
(0.0512646 0.0276598 -1.00878e-21)
(0.056942 0.0227757 -2.39659e-20)
(0.050255 0.0214049 5.07254e-21)
(0.0549244 0.0184473 -2.34022e-21)
(0.0476449 0.0161468 -4.61386e-21)
(0.0529902 0.0162571 3.07164e-20)
(0.0457975 0.0131492 1.94901e-20)
(0.0515077 0.0158809 2.45117e-20)
(0.0435661 0.0118829 -7.02802e-21)
(0.0509943 0.0167741 6.07403e-20)
(0.0421198 0.012267 2.0975e-20)
(0.051748 0.0181968 6.51422e-20)
(0.0417798 0.0136059 8.22403e-21)
(0.0537156 0.0194808 1.51605e-20)
(0.0426805 0.0152879 1.16649e-20)
(0.0566012 0.020105 -1.18574e-20)
(0.0446615 0.0167232 -1.19365e-20)
(0.0598933 0.0196885 0)
(0.0473812 0.0174724 0)
(0.0630301 0.0179971 1.80509e-21)
(0.0504084 0.0171459 5.69694e-22)
(0.0533033 0.0155042 1.28011e-21)
(0.0655056 0.0150409 2.92646e-21)
(0.0424623 0.0196378 0)
(0.0364119 0.0188716 0)
(0.040541 0.0143762 2.48106e-20)
(0.0356434 0.0131859 4.03957e-21)
(0.0383172 0.010576 1.65214e-20)
(0.0335896 0.00906617 4.15912e-20)
(0.0358863 0.0084348 -1.64031e-20)
(0.0314174 0.00648517 -3.64607e-20)
(0.0337256 0.00802882 -1.16126e-20)
(0.028748 0.00539889 -4.31839e-20)
(0.0324578 0.00896323 -3.30564e-20)
(0.0266967 0.00578716 -1.28621e-20)
(0.0323451 0.0106636 -4.64772e-20)
(0.0255994 0.00719614 -1.62183e-20)
(0.0333599 0.0125627 -1.56375e-20)
(0.0256217 0.00915194 -6.02335e-23)
(0.0353216 0.01417 0)
(0.0267101 0.0111285 -1.68743e-20)
(0.0379603 0.0150454 5.7352e-22)
(0.0286954 0.0127104 0)
(0.0409345 0.0148245 -1.29167e-22)
(0.0313265 0.0134885 4.65111e-23)
(0.0342976 0.0131422 -8.06597e-23)
(0.043875 0.0133517 -3.37623e-22)
(0.0291054 0.0118655 4.06565e-21)
(0.0226545 0.0104881 4.18261e-21)
(0.0281326 0.00778137 2.17093e-20)
(0.0243699 0.00646927 1.65248e-20)
(0.0262379 0.00508875 -1.15711e-20)
(0.022731 0.00352085 -1.71235e-21)
(0.0236541 0.00344389 -6.25206e-20)
(0.0205549 0.00183753 4.81462e-21)
(0.0211668 0.00314453 -4.51346e-20)
(0.017883 0.00113641 -4.05568e-20)
(0.0193359 0.00400163 4.57274e-21)
(0.0155962 0.00159984 -1.09813e-20)
(0.018484 0.00567092 3.09409e-20)
(0.0140549 0.00298341 1.79291e-20)
(0.0186825 0.00772446 -1.00336e-21)
(0.0134892 0.00499511 1.57733e-20)
(0.0199402 0.00973993 -1.69833e-20)
(0.0139737 0.0071566 -4.84027e-21)
(0.0220901 0.0112668 -5.34112e-22)
(0.0154406 0.0091285 0)
(0.0248903 0.0119267 3.33552e-23)
(0.0177381 0.0104879 3.63913e-21)
(0.020601 0.0109053 9.68657e-22)
(0.0279893 0.0114838 1.57873e-22)
(0.0176135 0.00514693 1.672e-20)
(0.0116272 0.00203077 2.28039e-21)
(0.0182109 0.00203292 -7.93827e-21)
(0.0156869 0.000497901 9.88934e-22)
(0.0166652 0.000450296 1.46721e-20)
(0.0141386 -0.00112058 -1.28553e-21)
(0.0142072 -0.000431927 3.11859e-20)
(0.0121036 -0.00172942 3.53308e-20)
(0.0117695 -0.000380571 -4.7693e-21)
(0.00956283 -0.00195769 3.20298e-20)
(0.00981586 0.000595072 2.80381e-21)
(0.00733558 -0.00129406 2.29378e-20)
(0.00866533 0.00228364 2.84286e-21)
(0.00571421 0.000134701 -1.80551e-20)
(0.00849932 0.00439701 1.2376e-20)
(0.00494908 0.0021394 -1.14531e-20)
(0.00932438 0.00655668 1.24621e-20)
(0.00513741 0.00435368 1.25363e-20)
(0.0110955 0.00837265 4.20249e-21)
(0.00627006 0.00645619 -1.29034e-21)
(0.0136089 0.00949609 4.716e-21)
(0.00824533 0.00808507 9.34547e-22)
(0.0165467 0.00968161 4.63112e-22)
(0.0108381 0.00893928 4.32973e-22)
(0.0672893 0.0110298 1.07137e-21)
(0.0557907 0.0126379 1.5e-21)
(0.0687793 0.00604246 -5.0002e-23)
(0.0579073 0.00874724 1.61309e-22)
(0.0701188 2.91068e-05 0)
(0.0597451 0.00382313 -1.78338e-21)
(0.0711391 -0.00695612 6.55161e-21)
(0.0612167 -0.00212265 -1.94986e-21)
(0.0715558 -0.0147474 2.00814e-20)
(0.0621394 -0.00893262 -1.69553e-21)
(0.0710152 -0.0231201 4.07697e-20)
(0.0622404 -0.0164002 1.36753e-20)
(0.0692781 -0.0319445 1.96828e-20)
(0.0610991 -0.0242972 4.86043e-21)
(0.0657811 -0.0407248 1.50857e-20)
(0.0585162 -0.0321174 -1.47598e-20)
(0.0606325 -0.0488239 2.75342e-20)
(0.0547623 -0.0399046 6.58898e-21)
(0.053867 -0.0551373 -1.99548e-20)
(0.0503065 -0.04684 5.64441e-21)
(0.0457917 -0.058819 -2.46161e-20)
(0.0442957 -0.0513786 -4.93457e-21)
(0.0363332 -0.052398 0)
(0.0367 -0.0598253 0)
(0.0465585 0.010688 5.62991e-22)
(0.0372949 0.0115787 1.85765e-23)
(0.0489354 0.00691316 -1.58228e-21)
(0.0400895 0.00885101 -1.73466e-22)
(0.0509004 0.00208256 -3.7583e-21)
(0.0424842 0.00501365 2.93637e-22)
(0.052297 -0.00365465 -9.18399e-21)
(0.0442668 0.00018843 -8.2741e-23)
(0.0529461 -0.0100776 -7.08107e-21)
(0.0453006 -0.00538207 -1.15111e-20)
(0.0525288 -0.0169753 -2.08008e-20)
(0.0455116 -0.0114108 2.49648e-21)
(0.0507571 -0.0241343 -2.86272e-20)
(0.0446024 -0.0177082 -2.09343e-20)
(0.0479393 -0.031193 -2.19228e-20)
(0.0421748 -0.0239611 1.4049e-22)
(0.0444314 -0.0375721 -1.46669e-20)
(0.0386389 -0.0301407 -7.98801e-21)
(0.0402665 -0.0424381 1.8884e-20)
(0.0355412 -0.0358174 5.18874e-21)
(0.0349374 -0.0447614 1.8884e-20)
(0.0323304 -0.0394606 -3.78844e-21)
(0.0267265 -0.0388215 0)
(0.0275734 -0.0445116 -1.42855e-21)
(0.0310486 0.00988017 -6.08674e-22)
(0.0236887 0.0102212 -3.19551e-22)
(0.0338037 0.00715341 1.50371e-21)
(0.026669 0.00842203 9.23051e-23)
(0.0360006 0.00339675 3.67784e-21)
(0.0292398 0.00557 1.78377e-21)
(0.03743 -0.00119821 -2.30629e-21)
(0.0311136 0.00180922 -3.73543e-21)
(0.0380301 -0.00634867 -2.07665e-21)
(0.0321011 -0.00262682 -4.4402e-21)
(0.0377365 -0.0117983 2.51259e-21)
(0.0321953 -0.00741288 -1.85471e-21)
(0.0362416 -0.0173971 7.26565e-21)
(0.0313839 -0.0123209 -5.51196e-21)
(0.0334261 -0.0229633 1.28195e-20)
(0.0292774 -0.017163 3.78601e-20)
(0.0301027 -0.028093 1.20389e-20)
(0.0255678 -0.0219245 6.52358e-21)
(0.0271613 -0.0318064 -1.96528e-20)
(0.0221681 -0.0260418 -6.07636e-22)
(0.0241571 -0.0328309 -2.29407e-20)
(0.0205036 -0.028469 -5.07068e-21)
(0.0174332 -0.0263007 -1.14171e-20)
(0.0188482 -0.0314216 0)
(0.0195598 0.00883092 2.92637e-22)
(0.0137376 0.00884714 8.45721e-24)
(0.0223278 0.00695554 2.90328e-22)
(0.0166047 0.00776365 6.71142e-23)
(0.0245614 0.00415294 -5.68734e-21)
(0.0191321 0.00573326 0)
(0.025989 0.00060575 -5.68734e-21)
(0.0210198 0.00290462 -1.44958e-21)
(0.0264775 -0.00342137 -4.41005e-21)
(0.022028 -0.000524035 8.79744e-21)
(0.0260441 -0.00764856 -9.57828e-21)
(0.0220648 -0.0042442 7.84374e-22)
(0.0246143 -0.011941 2.51932e-20)
(0.021181 -0.00798675 -5.7735e-22)
(0.021884 -0.0162179 3.1383e-20)
(0.0192863 -0.0115852 6.85965e-21)
(0.0181086 -0.0200406 -4.69022e-21)
(0.0156968 -0.0150118 -3.39322e-22)
(0.0150804 -0.0222656 1.16102e-20)
(0.0110676 -0.0172732 -2.14478e-20)
(0.0135603 -0.0210059 6.02073e-21)
(0.00822675 -0.0169378 3.01456e-20)
(0.0100943 -0.0176729 -7.1254e-21)
(0.00783724 -0.0136586 2.67534e-21)
(0.0281039 -0.0591898 1.98348e-20)
(0.0276783 -0.0517813 -1.41902e-21)
(0.0216613 -0.057809 1.98348e-20)
(0.0203208 -0.0508668 2.44439e-20)
(0.0175563 -0.0557358 3.00641e-20)
(0.0151916 -0.0487948 -4.27715e-21)
(0.0156452 -0.0535194 4.51277e-20)
(0.0122871 -0.0461795 3.02646e-20)
(0.0155361 -0.0518155 4.04291e-21)
(0.0113637 -0.0437361 -5.00957e-21)
(0.0166269 -0.0511309 -2.97326e-20)
(0.0119845 -0.0420804 1.41758e-20)
(0.0182448 -0.0517338 -1.25855e-20)
(0.013552 -0.0416062 2.87683e-20)
(0.0197416 -0.0535906 -4.21462e-21)
(0.015454 -0.0424094 6.66568e-21)
(0.0205684 -0.0564061 7.53522e-21)
(0.01712 -0.044337 -2.24783e-22)
(0.0202997 -0.0596878 2.17267e-20)
(0.018057 -0.0470641 1.77043e-20)
(0.018662 -0.0628796 3.35531e-21)
(0.0178334 -0.0501691 3.95158e-21)
(0.0161735 -0.0531946 2.53086e-22)
(0.0156523 -0.0654527 -7.52583e-30)
(0.019487 -0.0430566 2.31864e-21)
(0.019126 -0.0368499 -1.43771e-21)
(0.0134672 -0.0414127 1.50509e-21)
(0.012568 -0.0365552 6.6191e-21)
(0.00956738 -0.0388112 -4.30587e-21)
(0.00813977 -0.0343937 1.62627e-20)
(0.0076479 -0.0359301 -1.93481e-20)
(0.00560959 -0.0314808 -2.83236e-20)
(0.00750801 -0.0335357 4.98225e-21)
(0.00475324 -0.0285813 -1.14158e-21)
(0.00869575 -0.0321227 7.2527e-20)
(0.00537196 -0.0263256 3.47525e-20)
(0.0106454 -0.031922 4.81966e-20)
(0.00702436 -0.0251229 2.14223e-20)
(0.0127891 -0.032903 1.08026e-20)
(0.00921615 -0.0250944 -1.97366e-20)
(0.0146104 -0.0348914 9.96916e-21)
(0.0114336 -0.0261914 6.09936e-21)
(0.0156324 -0.0376314 -2.55705e-22)
(0.0131995 -0.0282605 -8.40902e-21)
(0.0154557 -0.0407606 7.31581e-22)
(0.0140752 -0.0310435 5.81456e-22)
(0.0137133 -0.0341952 2.54459e-22)
(0.0139128 -0.043866 6.11675e-22)
(0.0118929 -0.0297933 2.53218e-22)
(0.0109488 -0.0231186 4.33571e-21)
(0.00713744 -0.0288477 2.09824e-20)
(0.0061625 -0.0252781 -5.53123e-21)
(0.00420769 -0.0265026 -7.77729e-21)
(0.00275698 -0.0232521 -2.14392e-20)
(0.00269095 -0.0235226 -9.45245e-21)
(0.00109707 -0.0205443 4.93392e-21)
(0.00257857 -0.0207957 2.93864e-20)
(0.000518353 -0.0176177 4.29347e-20)
(0.00366479 -0.0188122 -1.63936e-20)
(0.00116743 -0.0151266 3.57722e-20)
(0.00557524 -0.0178822 -4.71227e-20)
(0.00276736 -0.0134808 -1.85743e-20)
(0.00786368 -0.0180878 -2.44324e-20)
(0.00498879 -0.0128781 -1.15636e-21)
(0.0100774 -0.0194185 -1.25524e-20)
(0.00737771 -0.0133931 -4.83301e-21)
(0.0117443 -0.0217167 -7.74907e-21)
(0.00951241 -0.0149735 -9.23191e-21)
(0.0124475 -0.0247019 -3.79461e-23)
(0.0109625 -0.0174377 1.42421e-21)
(0.0113745 -0.0204792 -6.30072e-23)
(0.0119501 -0.0279766 -3.82022e-23)
(0.00532962 -0.0182683 -3.05412e-21)
(0.00256021 -0.0118495 1.52527e-21)
(0.00157385 -0.0188188 -4.98116e-20)
(0.00034843 -0.0163883 -2.10736e-20)
(-0.000218208 -0.0168488 -8.93119e-21)
(-0.00168689 -0.0144837 -2.61876e-20)
(-0.00105209 -0.0140549 6.02045e-20)
(-0.00230536 -0.0120846 6.67426e-20)
(-0.00088395 -0.0113885 4.94443e-20)
(-0.00248123 -0.009301 -1.24835e-20)
(0.000267858 -0.00928451 3.39385e-20)
(-0.00168011 -0.00688247 -1.56189e-20)
(0.00216093 -0.00806993 2.8362e-20)
(-8.07627e-05 -0.00516163 1.34449e-20)
(0.00447075 -0.00789008 1.91034e-20)
(0.00211302 -0.00435654 2.71348e-20)
(0.0068084 -0.0088062 -1.4439e-21)
(0.00450573 -0.00458019 -3.79541e-21)
(0.00874854 -0.0107176 2.69191e-23)
(0.00675237 -0.00581844 -1.4525e-21)
(0.00991728 -0.0133978 1.39814e-21)
(0.00846332 -0.00794325 1.44159e-21)
(0.0100672 -0.0164886 -3.31717e-23)
(0.00932255 -0.0106898 6.14592e-22)
(0.0115122 -0.0673162 -5.09964e-23)
(0.0131706 -0.055811 3.54509e-22)
(0.0063712 -0.0688445 1.45273e-21)
(0.00909748 -0.0580064 1.56609e-22)
(0.000205177 -0.0701988 4.5443e-21)
(0.00400426 -0.0598717 -5.55885e-22)
(-0.00692045 -0.0712036 -3.33825e-21)
(-0.00208116 -0.0613298 -1.90768e-21)
(-0.0148267 -0.0715658 3.56851e-21)
(-0.00899823 -0.0621965 -5.756e-21)
(-0.0232825 -0.0709319 9.88226e-21)
(-0.0165383 -0.0621993 -6.99378e-21)
(-0.0321412 -0.0690685 1.62416e-20)
(-0.024464 -0.0609334 -2.17696e-20)
(-0.0408991 -0.0654475 1.62416e-20)
(-0.0322498 -0.0582303 -7.95444e-21)
(-0.0489222 -0.0602099 3.36016e-20)
(-0.0399569 -0.0543653 -3.00321e-20)
(-0.0551158 -0.0534051 2.24391e-20)
(-0.0467677 -0.0498339 5.9059e-21)
(-0.0586647 -0.0453861 -1.80424e-20)
(-0.0512054 -0.0438366 -1.0294e-20)
(-0.0521511 -0.0360193 -7.54355e-21)
(0.0110996 -0.0466681 4.82649e-22)
(0.012036 -0.0373489 4.01734e-22)
(0.00715848 -0.0490998 -1.87419e-21)
(0.00915379 -0.0402388 -4.81431e-22)
(0.00218397 -0.0510651 -7.08544e-21)
(0.00517184 -0.042664 6.09644e-22)
(-0.0036644 -0.0524155 -4.19454e-21)
(0.000231182 -0.0444272 -3.93244e-21)
(-0.0101635 -0.0529726 -1.46681e-20)
(-0.0054184 -0.0453975 1.00479e-20)
(-0.0170987 -0.052423 -3.73704e-20)
(-0.0114901 -0.045502 -1.0364e-20)
(-0.0242467 -0.0505104 -4.63294e-20)
(-0.0177944 -0.0444516 -7.00113e-22)
(-0.0312268 -0.0475608 -5.40625e-20)
(-0.0239909 -0.0418914 2.6837e-20)
(-0.0375009 -0.043972 -5.75043e-20)
(-0.0300921 -0.0382211 -6.10987e-21)
(-0.0422683 -0.0397714 -2.72706e-20)
(-0.0356396 -0.035011 -5.22939e-20)
(-0.0445198 -0.0345004 0)
(-0.0392127 -0.031782 0)
(-0.0385888 -0.0263295 0)
(0.010231 -0.0311557 -5.72409e-22)
(0.0106077 -0.0237149 1.9649e-23)
(0.00737331 -0.033971 1.66301e-21)
(0.00868561 -0.0267896 -2.86858e-22)
(0.00349986 -0.0361718 2.60429e-21)
(0.00571953 -0.0293931 2.10341e-21)
(-0.00118298 -0.0375662 9.66136e-21)
(0.00186441 -0.0312581 9.44929e-21)
(-0.00638474 -0.0380922 1.46575e-20)
(-0.00263092 -0.0322043 -2.39102e-21)
(-0.0118491 -0.0376852 2.55506e-20)
(-0.00744417 -0.0322244 -2.21552e-21)
(-0.0174215 -0.0360409 7.16432e-20)
(-0.0123464 -0.0313054 2.01497e-20)
(-0.0229177 -0.0330869 7.48364e-20)
(-0.01714 -0.0290847 5.56104e-20)
(-0.0279351 -0.0296282 -2.45235e-21)
(-0.021824 -0.0252568 -3.01557e-21)
(-0.0315657 -0.0266033 -2.50088e-20)
(-0.0258382 -0.0217162 -4.39075e-22)
(-0.0325692 -0.0236283 0)
(-0.0282313 -0.0199597 -1.89551e-20)
(-0.026145 -0.0169874 0)
(0.0091291 -0.019612 2.92368e-22)
(0.0091718 -0.0137154 3.03771e-22)
(0.00715398 -0.0224398 1.54495e-22)
(0.00799382 -0.0166716 4.07761e-23)
(0.00426151 -0.0246864 8.37435e-21)
(0.00587582 -0.0192353 -4.0771e-23)
(0.000644949 -0.0260991 -2.31207e-21)
(0.00296883 -0.0211247 1.44055e-20)
(-0.00342201 -0.0265478 -1.78936e-20)
(-0.00050748 -0.0221152 -3.42153e-21)
(-0.00765854 -0.0260502 -7.65637e-21)
(-0.00424944 -0.0221154 -1.76795e-20)
(-0.0119249 -0.0245329 3.72169e-21)
(-0.00799002 -0.0211769 -6.5215e-21)
(-0.0161441 -0.0217077 -2.12101e-20)
(-0.0115598 -0.0192209 -1.51274e-20)
(-0.0198926 -0.0178227 -1.23051e-21)
(-0.0149395 -0.0155713 2.39196e-20)
(-0.0220823 -0.0146687 5.56771e-21)
(-0.0171623 -0.0108618 2.47873e-20)
(-0.0208752 -0.0130891 -1.90729e-20)
(-0.0168874 -0.00792213 -1.3403e-22)
(-0.0136962 -0.00749685 0)
(0.00894801 -0.00288778 -1.63816e-20)
(0.00739586 -0.00510926 -1.50004e-20)
(0.0108726 -0.00298859 7.15006e-21)
(0.0102995 -0.00484845 -8.24077e-21)
(0.00940472 -0.0031271 1.94014e-20)
(0.00801208 -0.00465338 -2.05001e-21)
(0.00700192 -0.00328204 3.78578e-20)
(0.00587283 -0.00425498 0)
(0.00469327 -0.00290873 6.16178e-20)
(0.00340001 -0.00411174 3.80755e-20)
(0.00284391 -0.00178853 1.85063e-21)
(0.00129358 -0.0033056 -1.30436e-20)
(0.00169846 -4.80568e-05 -3.26199e-20)
(-0.000267971 -0.00185019 -4.21779e-20)
(0.00141166 0.00207104 -1.12108e-20)
(-0.00106186 0.000125104 6.60147e-21)
(0.00201799 0.00425058 -1.29807e-21)
(-0.00100795 0.00232018 -3.32344e-21)
(0.0034866 0.00617143 -4.51559e-21)
(-9.70258e-05 0.00444157 -1.27126e-20)
(0.00565846 0.00753018 -3.33954e-21)
(0.00158966 0.00618512 -2.16116e-21)
(0.00386998 0.00728805 -6.29826e-23)
(0.00827661 0.00810445 -2.98394e-23)
(0.00708977 -0.00709163 -6.80453e-21)
(0.0056236 -0.00682477 2.11202e-21)
(0.00662134 -0.00647945 -1.77776e-20)
(0.00687518 -0.0076464 4.12741e-21)
(0.00437166 -0.0055733 -2.30427e-20)
(0.00385114 -0.00680599 -2.31708e-20)
(0.00196554 -0.00508804 0)
(0.00156848 -0.00584004 0)
(-0.000290457 -0.00451345 -3.69423e-20)
(-0.000861292 -0.00537457 0)
(-0.0020896 -0.00337725 -5.82677e-20)
(-0.00285746 -0.00451635 -6.85079e-20)
(-0.00323521 -0.00168445 -2.87873e-21)
(-0.00434642 -0.00311898 4.06717e-20)
(-0.0035964 0.000374951 1.48436e-20)
(-0.00513559 -0.00124701 2.84685e-21)
(-0.0031443 0.00251689 -1.48156e-20)
(-0.00516266 0.000856218 -3.36123e-21)
(-0.00191416 0.00445701 -1.0273e-20)
(-0.004419 0.00292022 -1.65453e-21)
(-3.6543e-05 0.0059354 1.14464e-21)
(-0.00297483 0.00468096 4.38318e-21)
(-0.000984856 0.00590962 9.35833e-22)
(0.00227612 0.00675329 -2.89837e-23)
(0.00519415 -0.00792985 1.0564e-20)
(0.00462685 -0.00647447 -2.75231e-21)
(0.00369351 -0.0081845 0)
(0.00444783 -0.00874504 -1.90341e-20)
(0.000950975 -0.00699236 0)
(0.00104678 -0.00787515 2.15351e-20)
(-0.0015059 -0.00614833 0)
(-0.0013146 -0.00666749 -1.98326e-20)
(-0.00365842 -0.0054067 -3.15356e-20)
(-0.00359982 -0.00595644 0)
(-0.0053573 -0.0043016 3.01539e-20)
(-0.00545062 -0.00508774 -3.64274e-20)
(-0.00645974 -0.00272043 4.70878e-20)
(-0.00685183 -0.00380568 4.12849e-20)
(-0.00685685 -0.000791486 -1.54122e-20)
(-0.00763675 -0.00209988 1.80263e-21)
(-0.00651374 0.0012466 9.93785e-21)
(-0.00773628 -0.000155873 -2.69311e-21)
(-0.00547417 0.00313383 1.31591e-20)
(-0.00714076 0.00178999 1.09567e-20)
(-0.00383767 0.00464058 4.21879e-21)
(-0.00590973 0.00349223 -1.20975e-21)
(-0.00418024 0.00475594 9.28986e-22)
(-0.00178756 0.00559146 1.28625e-21)
(0.00365739 -0.00760683 -3.25825e-20)
(0.00373559 -0.00548899 -1.43183e-20)
(0.0015184 -0.00871505 1.57901e-21)
(0.00274859 -0.00861859 -4.60989e-21)
(-0.00130785 -0.0076137 1.71169e-21)
(-0.000708472 -0.00814863 1.25315e-22)
(-0.00367479 -0.00658538 -1.99399e-20)
(-0.00312232 -0.00695772 2.24757e-20)
(-0.00565096 -0.00572083 -4.59993e-21)
(-0.00522748 -0.00609218 -2.02794e-20)
(-0.00721359 -0.00466879 -2.66877e-20)
(-0.00689581 -0.00521368 -3.67906e-21)
(-0.00826043 -0.00324424 -4.34761e-21)
(-0.00817569 -0.0040545 -1.89913e-20)
(-0.00868962 -0.00150341 1.48853e-20)
(-0.00893582 -0.00254177 -7.81628e-21)
(-0.00846223 0.000365665 -1.737e-21)
(-0.00909532 -0.000796084 -2.58872e-22)
(-0.00759891 0.00213535 -3.48026e-21)
(-0.00863267 0.000979898 9.75729e-22)
(-0.00619426 0.00359659 -4.5082e-21)
(-0.00759525 0.00257056 -4.81665e-21)
(-0.0061001 0.0038017 -8.19501e-22)
(-0.00440019 0.00459525 3.0701e-23)
(0.00261863 -0.00669518 1.37657e-20)
(0.00294656 -0.00440395 1.28143e-20)
(0.000191963 -0.0083307 -6.91152e-21)
(0.00162068 -0.00773297 1.47403e-20)
(-0.00264677 -0.00759618 2.07991e-20)
(-0.00171119 -0.00778004 -2.16868e-20)
(-0.00491899 -0.00659367 2.23582e-20)
(-0.00413204 -0.00681419 2.00112e-20)
(-0.00671216 -0.00568316 -1.93649e-20)
(-0.00607898 -0.00593451 2.29809e-20)
(-0.00810591 -0.00468266 3.67917e-21)
(-0.00756481 -0.00507356 2.65121e-20)
(-0.00906799 -0.00341317 -2.25709e-20)
(-0.00870495 -0.00402467 1.01813e-22)
(-0.00950742 -0.00187529 -2.31555e-20)
(-0.00941158 -0.0026985 -6.16215e-21)
(-0.00937077 -0.000205684 2.47581e-21)
(-0.00960412 -0.00116312 2.13185e-22)
(-0.00866368 0.00140298 -3.31934e-22)
(-0.0092492 0.00041829 8.25367e-22)
(-0.00746511 0.00276709 -1.09784e-21)
(-0.00837813 0.00186322 -1.46718e-21)
(-0.00708713 0.00301588 -4.694e-22)
(-0.00590356 0.0037485 -1.64553e-21)
(0.00183552 -0.00556144 1.36083e-20)
(0.00226023 -0.00342777 4.21034e-20)
(-0.000579962 -0.00741464 0)
(0.000858316 -0.00652975 3.34353e-20)
(-0.00334478 -0.00710757 -2.30427e-20)
(-0.00224341 -0.00699771 -7.98141e-21)
(-0.00551664 -0.00628336 2.01297e-20)
(-0.00460175 -0.00635193 -3.61434e-20)
(-0.00715037 -0.00542341 6.93553e-20)
(-0.00641516 -0.0055804 7.23537e-21)
(-0.00838946 -0.0044971 2.35609e-20)
(-0.00774356 -0.0047804 2.10882e-20)
(-0.00924739 -0.0033691 1.71717e-20)
(-0.00874494 -0.00384109 2.10205e-21)
(-0.00966548 -0.00202407 1.74227e-20)
(-0.00937833 -0.00268343 1.96404e-20)
(-0.00958726 -0.000559206 -1.45712e-21)
(-0.00957376 -0.00134824 -2.29789e-21)
(-0.00900509 0.000869907 -2.86717e-22)
(-0.00929209 3.6193e-05 -5.18644e-21)
(-0.00797781 0.00210701 -8.24229e-22)
(-0.00854992 0.0013194 -1.91748e-21)
(-0.00742463 0.00236595 3.11865e-22)
(-0.00661466 0.00302912 5.90318e-22)
(0.00121551 -0.00445875 6.21685e-20)
(0.00166482 -0.00261503 9.25377e-22)
(-0.00105587 -0.00629487 2.61707e-20)
(0.000284888 -0.00530039 3.41763e-20)
(-0.00365842 -0.00634334 -2.14632e-20)
(-0.00253462 -0.0060338 2.29608e-20)
(-0.00570928 -0.00576504 -4.99157e-20)
(-0.00475449 -0.00569891 3.65561e-20)
(-0.0072054 -0.00502915 -4.15808e-20)
(-0.00642943 -0.00510092 -1.94204e-20)
(-0.00830638 -0.00420338 -4.50905e-22)
(-0.00761795 -0.00440147 -9.17342e-21)
(-0.00905794 -0.00321088 4.72101e-21)
(-0.00849032 -0.00357715 1.13315e-20)
(-0.00943427 -0.00204288 0)
(-0.00904058 -0.00257089 -2.15131e-21)
(-0.00937885 -0.000771455 -6.04973e-21)
(-0.00921202 -0.00142025 -1.50026e-20)
(-0.00888125 0.000478113 -6.80123e-21)
(-0.00896713 -0.00022332 7.69381e-21)
(-0.00798401 0.00157467 -7.76383e-22)
(-0.00831255 0.000895403 -1.78569e-21)
(-0.00731051 0.00182024 2.75997e-22)
(-0.00677683 0.00241115 -7.99152e-23)
(0.000690212 -0.00348645 -2.7516e-20)
(0.001147 -0.00194892 -3.55612e-21)
(-0.00140398 -0.00518004 3.14908e-20)
(-0.000200245 -0.00417887 -2.45302e-20)
(-0.00378456 -0.00547792 8.11018e-20)
(-0.00271472 -0.00504155 1.15106e-21)
(-0.00566899 -0.00513786 6.76515e-20)
(-0.00472288 -0.0049591 4.99492e-20)
(-0.00702543 -0.00455877 1.32625e-20)
(-0.00623091 -0.00454485 1.78e-20)
(-0.00799053 -0.00384921 1.75274e-21)
(-0.00727776 -0.00397017 -2.13501e-20)
(-0.00863995 -0.00299019 4.63869e-21)
(-0.00802867 -0.0032625 4.60713e-21)
(-0.00895557 -0.0019832 -1.7236e-20)
(-0.0084895 -0.00239912 -2.02552e-21)
(-0.00889632 -0.000891614 -1.23747e-21)
(-0.00861692 -0.00141694 1.56631e-20)
(-0.00844403 0.00018466 1.28527e-20)
(-0.00837643 -0.000398048 7.63216e-21)
(-0.0076335 0.00113593 -7.33108e-22)
(-0.007771 0.00055783 -1.0151e-21)
(-0.00685244 0.00135222 2.78602e-22)
(-0.00654029 0.00187041 2.77318e-22)
(0.000225843 -0.00265273 -6.14191e-22)
(0.000696321 -0.00139564 -3.00576e-20)
(-0.00168995 -0.00415284 -5.54906e-20)
(-0.000618044 -0.00318995 -2.52016e-20)
(-0.00379995 -0.00460217 -3.06941e-20)
(-0.00280402 -0.0040831 -3.43184e-20)
(-0.0054672 -0.00446018 -2.91997e-22)
(-0.00453715 -0.00418175 -5.84374e-20)
(-0.00665606 -0.00403553 -1.69526e-20)
(-0.00584229 -0.00393449 -3.60984e-20)
(-0.00748765 -0.00345107 -1.90052e-20)
(-0.00673943 -0.00348869 -1.68253e-20)
(-0.00803307 -0.00272304 -2.07714e-21)
(-0.00737206 -0.00290132 3.94325e-21)
(-0.00827611 -0.00186768 3.09558e-20)
(-0.00774075 -0.00217872 -1.6942e-20)
(-0.00818662 -0.000944409 2.46524e-20)
(-0.00781085 -0.00135694 1.7139e-20)
(-0.00774908 -3.63862e-05 -6.29257e-21)
(-0.00755146 -0.000508664 -1.15499e-20)
(-0.00698937 0.000766604 0)
(-0.00696524 0.000284661 -6.66442e-22)
(-0.00609826 0.000941462 0)
(-0.00597363 0.00138685 0)
(-0.000171068 -0.00193319 -5.49728e-20)
(0.000304316 -0.000935723 -2.84106e-20)
(-0.00188922 -0.00321389 -3.7965e-21)
(-0.000943672 -0.00231904 0)
(-0.00367966 -0.00373458 -6.26107e-20)
(-0.00275893 -0.00316553 -3.81315e-21)
(-0.00508479 -0.00374339 -9.4755e-20)
(-0.00417388 -0.00337977 -2.85895e-20)
(-0.00608264 -0.00345879 -3.6395e-20)
(-0.00525434 -0.00327516 -5.1225e-21)
(-0.00678042 -0.00300118 5.90286e-21)
(-0.00600111 -0.0029539 1.60844e-20)
(-0.00722078 -0.00240509 -1.0982e-20)
(-0.00651741 -0.0024913 2.15022e-20)
(-0.00739163 -0.00170136 -3.11642e-20)
(-0.00678877 -0.00190723 1.04111e-20)
(-0.00725792 -0.000942377 -1.92501e-20)
(-0.00678269 -0.00124413 -1.23097e-20)
(-0.00681158 -0.00020033 -5.8964e-21)
(-0.00647516 -0.000563501 1.12721e-21)
(-0.00607614 0.000450889 -6.69458e-22)
(-0.005872 6.54148e-05 -1.3165e-21)
(-0.00501826 0.000575659 0)
(-0.00511127 0.000946642 0)
(-0.000482112 -0.00132357 2.6925e-20)
(-3.202e-05 -0.000556325 5.30731e-20)
(-0.00194754 -0.00235933 0)
(-0.0010908 -0.00151504 0)
(-0.00337867 -0.00288634 3.03034e-20)
(-0.00241773 -0.00220051 0)
(-0.0044975 -0.00299959 6.17192e-20)
(-0.0034414 -0.0024511 2.67424e-20)
(-0.00530986 -0.00284146 4.73334e-20)
(-0.00423201 -0.00243939 3.52392e-20)
(-0.00587825 -0.00250441 3.14292e-20)
(-0.00476148 -0.00222697 1.22285e-20)
(-0.00621135 -0.00203699 4.32807e-20)
(-0.00508083 -0.00188796 1.92558e-20)
(-0.0062865 -0.00148072 2.94089e-20)
(-0.00516502 -0.00145172 1.36903e-20)
(-0.00607621 -0.000883416 8.18357e-21)
(-0.00499189 -0.000965479 1.76436e-21)
(-0.00557682 -0.000306996 5.80427e-21)
(-0.00455784 -0.000483357 1.25899e-20)
(-0.0048165 0.000186426 -6.46947e-22)
(-0.00388524 -6.06288e-05 3.14889e-21)
(-0.00302698 0.000253481 -7.94127e-22)
(-0.00385433 0.000543569 7.5114e-23)
(-0.000641249 -0.000755713 2.61448e-20)
(-0.00166779 -0.00144566 0)
(-0.00258422 -0.00184556 -3.70638e-21)
(-0.00330136 -0.0019784 -3.09851e-22)
(-0.00379817 -0.00190127 -6.8368e-23)
(-0.00407931 -0.00167326 -3.23399e-22)
(-0.00413732 -0.00134785 -1.05005e-20)
(-0.00395338 -0.00097102 -1.42209e-20)
(-0.00352969 -0.000588706 6.1621e-21)
(-0.00289107 -0.000250262 9.9925e-21)
(-0.00208567 1.56736e-06 3.01737e-21)
(-0.00118178 0.000136373 -3.33948e-22)
(0.0110469 0.00778893 -1.62387e-22)
(0.00648653 0.00758441 2.76793e-25)
(0.0136553 0.00657613 -1.63426e-22)
(0.0091292 0.00702873 -1.64365e-22)
(0.0158272 0.00455274 3.96271e-21)
(0.0115186 0.00563961 2.36722e-21)
(0.0172807 0.00188263 1.2551e-20)
(0.0133767 0.00356823 3.98549e-21)
(0.0178366 -0.00120177 1.35586e-20)
(0.0144607 0.000969012 8.11941e-21)
(0.0174231 -0.00441476 9.29218e-21)
(0.014636 -0.00187539 2.08999e-20)
(0.0160353 -0.00754628 -1.8886e-20)
(0.013859 -0.00468589 1.00439e-20)
(0.0134894 -0.0104191 -2.39178e-20)
(0.0121523 -0.00723348 -4.90234e-20)
(0.00931394 -0.0122711 -1.5607e-20)
(0.00915172 -0.0093149 0)
(0.00452359 -0.0118655 -1.52466e-21)
(0.00466273 -0.00993059 3.82051e-22)
(0.00153019 -0.00826766 2.40259e-20)
(0.000492341 -0.00736892 1.15248e-21)
(0.00195523 -0.0031653 1.14839e-20)
(0.00476969 0.00680737 -3.4277e-25)
(0.00134075 0.00645422 3.07306e-22)
(0.00720711 0.00608484 2.38091e-21)
(0.00373429 0.00625319 -7.69947e-23)
(0.00927826 0.00466846 2.38091e-21)
(0.00595439 0.00535797 4.23687e-23)
(0.0107567 0.00269044 -5.43271e-22)
(0.00774763 0.00387083 5.39276e-21)
(0.011462 0.000354048 1.57146e-20)
(0.00889319 0.00192254 -4.13955e-21)
(0.0112742 -0.00207031 2.12698e-20)
(0.00927266 -0.000232782 6.06668e-21)
(0.0101703 -0.00433226 -1.97078e-20)
(0.00879194 -0.00234774 -2.03817e-20)
(0.00810705 -0.0061859 -2.51125e-20)
(0.00746075 -0.00416766 -9.65301e-22)
(0.0048463 -0.00702783 1.53901e-20)
(0.00520242 -0.0054307 0)
(0.000965641 -0.0056804 2.4807e-21)
(0.00205689 -0.00551874 2.05297e-21)
(-0.000538655 -0.00171639 -1.24463e-20)
(-0.00148229 -0.00321156 -1.68396e-20)
(-0.000640814 -0.000182184 0)
(0.000440473 0.00588697 2.34457e-22)
(-0.00213112 0.00544972 3.80528e-22)
(0.00261318 0.0055194 -2.40045e-21)
(1.40835e-05 0.00550654 -1.74278e-22)
(0.00454538 0.00455642 3.09988e-21)
(0.0020484 0.00494957 -2.23355e-21)
(0.00602256 0.00310686 2.06154e-21)
(0.00374602 0.00388976 5.10861e-21)
(0.00684496 0.0013511 -1.36499e-20)
(0.00491898 0.00244633 -9.24968e-21)
(0.00693255 -0.000487484 -3.53536e-20)
(0.00547034 0.000806708 -1.00916e-20)
(0.00623435 -0.00216956 -1.72291e-21)
(0.00530855 -0.000800335 -5.06006e-21)
(0.00476284 -0.00344595 2.41055e-20)
(0.00444109 -0.00215472 2.01126e-20)
(0.00251699 -0.00390921 -1.34977e-20)
(0.00289631 -0.00300688 0)
(-0.000119685 -0.00302537 -1.74195e-20)
(0.00090811 -0.0030381 2.02809e-20)
(-0.001632 -0.00103812 -4.34833e-21)
(-0.00146954 -0.00161928 -4.37172e-21)
(-0.00105117 -0.000139025 0)
(-0.00240648 0.00503977 -8.0027e-23)
(-0.00430384 0.00455515 -7.95385e-22)
(-0.000431606 0.00491643 -9.41531e-23)
(-0.00239557 0.00477454 -1.10225e-22)
(0.00129486 0.00428146 -2.19487e-22)
(-0.000550254 0.00448524 1.00843e-21)
(0.00272308 0.00321899 -6.05351e-21)
(0.00102631 0.00370697 -4.33653e-21)
(0.00363111 0.00189647 -5.7315e-21)
(0.00219311 0.0026353 -6.11439e-21)
(0.00393063 0.000494828 2.05981e-20)
(0.00286282 0.00138564 1.35616e-20)
(0.00360135 -0.000788874 1.65891e-20)
(0.00295717 0.000143183 1.69274e-20)
(0.00267613 -0.00174429 -4.14476e-21)
(0.002495 -0.000910658 -1.57911e-20)
(0.00125315 -0.00211376 3.41387e-20)
(0.00153412 -0.00157471 4.02717e-21)
(-0.000329758 -0.0017101 3.41387e-20)
(0.000339859 -0.00171213 1.80537e-20)
(-0.00118791 -0.000638677 0)
(-0.00112336 -0.00104198 -7.65451e-21)
(-0.000982848 -0.000476742 3.73363e-21)
(-0.00414325 0.00426496 -8.7127e-22)
(-0.00551237 0.00377048 -5.9563e-22)
(-0.00236364 0.00430157 9.10114e-22)
(-0.00381528 0.00407493 0)
(-0.000721884 0.00388113 -3.30001e-21)
(-0.00215484 0.00394128 -5.639e-22)
(0.000586759 0.003108 -4.50541e-21)
(-0.000695754 0.00340521 -3.08186e-21)
(0.00148886 0.00211116 1.32093e-20)
(0.000439105 0.0025985 -1.30903e-21)
(0.00194451 0.00102149 9.83489e-21)
(0.00116992 0.0016145 -1.27468e-21)
(0.00188807 1.55397e-05 -1.55419e-20)
(0.00144688 0.000639739 8.90563e-21)
(0.00138788 -0.000757082 -7.63733e-21)
(0.00128127 -0.000219058 6.75706e-21)
(0.000540587 -0.0011294 -1.25647e-20)
(0.000739903 -0.000787441 4.06871e-21)
(-0.000408348 -0.00106762 -2.40616e-20)
(4.80377e-05 -0.00103067 -1.27564e-20)
(-0.00100977 -0.000694712 -3.61789e-21)
(-0.00086407 -0.000819594 -1.14758e-20)
(-0.000886428 -0.000715769 3.77215e-21)
(-0.00505605 0.0035615 2.79975e-22)
(-0.00603305 0.00308091 2.01825e-22)
(-0.00345761 0.00368494 -1.49614e-21)
(-0.00451478 0.00341668 2.96576e-22)
(-0.00196116 0.00342182 -5.41199e-22)
(-0.00301215 0.00337697 -1.50347e-21)
(-0.000714065 0.00285117 1.60637e-22)
(-0.00166312 0.00299848 9.59621e-22)
(0.000203284 0.002075 -1.59608e-20)
(-0.000575828 0.00237834 -9.6189e-22)
(0.000703022 0.00122354 -2.24938e-21)
(0.000187572 0.00160887 -1.79613e-20)
(0.000860795 0.000395371 3.13023e-20)
(0.000569436 0.000793994 2.94569e-21)
(0.000636941 -0.00025334 1.85764e-20)
(0.000609986 8.47055e-05 5.15343e-21)
(0.000175283 -0.000650917 3.76398e-21)
(0.000334578 -0.000435312 3.59698e-21)
(-0.00040013 -0.000788711 -5.74214e-24)
(-5.54853e-05 -0.000736601 3.77984e-21)
(-0.000813705 -0.000755672 -3.76131e-21)
(-0.000653275 -0.000787023 -3.58298e-20)
(-0.000775589 -0.000844022 -2.78667e-20)
(-0.00538171 0.00292068 2.45241e-22)
(-0.00606071 0.00246838 -8.02959e-23)
(-0.0039329 0.00308237 2.98038e-22)
(-0.00468495 0.00279589 1.2532e-22)
(-0.00256057 0.00291508 0)
(-0.00331029 0.00280336 -4.23579e-23)
(-0.00138357 0.00248067 0)
(-0.00205616 0.00252165 8.08471e-22)
(-0.000477641 0.00186457 -2.89842e-21)
(-0.00101816 0.00202667 5.72663e-21)
(0.000107002 0.00115724 -1.30255e-20)
(-0.000253459 0.00139675 5.3096e-21)