/*--------------------------------*- C++ -*----------------------------------*\
| =========                 |                                                 |
| \\      /  F ield         | OpenFOAM: The Open Source CFD Toolbox           |
|  \\    /   O peration     | Version:  v1806                                 |
|   \\  /    A nd           | Web:      www.OpenFOAM.com                      |
|    \\/     M anipulation  |                                                 |
\*---------------------------------------------------------------------------*/
FoamFile
{
    version     2.0;
    format      ascii;
    class       surfaceScalarField;
    location    "3";
    object      meshPhi;
}
// * * * * * * * * * * * * * * * * * * * * * * * * * * * * * * * * * * * * * //

dimensions      [0 3 -1 0 0 0 0];
oriented        oriented;


internalField   nonuniform List<scalar> 
5856
(
-3.33727e-06
-4.201e-15
-3.33727e-06
2.38029e-15
-3.33727e-06
1.62742e-15
-3.33727e-06
-4.3502e-15
-3.33727e-06
9.27542e-15
-3.33727e-06
1.37841e-15
-3.33727e-06
-5.95111e-15
-3.33727e-06
-1.28956e-15
-3.33727e-06
6.47261e-15
-3.33727e-06
-1.18767e-15
-3.33727e-06
-7.84804e-16
-6.76266e-15
-3.33727e-06
-3.72989e-06
-1.69253e-15
-3.72989e-06
-5.79098e-15
-3.72989e-06
5.70363e-15
-3.72989e-06
2.91272e-15
-3.72989e-06
-1.56387e-15
-3.72989e-06
4.81718e-15
-3.72989e-06
-1.2765e-14
-3.72989e-06
7.85589e-15
-3.72989e-06
3.24714e-15
-3.72989e-06
-1.42605e-15
-3.72989e-06
-4.04111e-15
3.48986e-15
-3.72989e-06
-4.12251e-06
1.411e-15
-4.12251e-06
1.47812e-15
-4.12251e-06
-6.9056e-15
-4.12251e-06
1.20619e-14
-4.12251e-06
-1.53325e-14
-4.12251e-06
1.01294e-14
-4.12251e-06
8.99887e-16
-4.12251e-06
-3.51125e-15
-4.12251e-06
-7.67276e-16
-4.12251e-06
-1.68572e-15
-4.12251e-06
3.45915e-15
4.55277e-15
-4.12251e-06
-4.51513e-06
5.10958e-15
-4.51513e-06
-8.5104e-15
-4.51513e-06
-2.85894e-15
-4.51513e-06
4.25031e-15
-4.51513e-06
4.47323e-15
-4.51513e-06
-2.24683e-15
-4.51513e-06
-7.23499e-15
-4.51513e-06
-1.27334e-15
-4.51513e-06
3.85228e-15
-4.51513e-06
-1.96667e-15
-4.51513e-06
-2.93173e-17
4.84539e-15
-4.51513e-06
-4.90775e-06
9.40319e-15
-4.90775e-06
5.55136e-17
-4.90775e-06
-1.86731e-14
-4.90775e-06
1.50729e-14
-4.90775e-06
-1.12411e-14
-4.90775e-06
2.49347e-15
-4.90775e-06
1.06013e-14
-4.90775e-06
-1.57418e-14
-4.90775e-06
-9.5474e-16
-4.90775e-06
-2.26889e-15
-4.90775e-06
9.30978e-15
6.0929e-15
-4.90775e-06
-5.30037e-06
-7.7916e-15
-5.30037e-06
1.06202e-14
-5.30037e-06
6.62137e-15
-5.30037e-06
-1.57246e-14
-5.30037e-06
1.12135e-14
-5.30037e-06
-1.14145e-14
-5.30037e-06
1.83071e-15
-5.30037e-06
-2.97599e-15
-5.30037e-06
5.66446e-15
-5.30037e-06
2.63566e-15
-5.30037e-06
2.64275e-15
-8.07676e-15
-5.30037e-06
-5.69299e-06
-3.8852e-15
-5.69299e-06
-1.2748e-15
-5.69299e-06
1.24778e-14
-5.69299e-06
-4.1592e-15
-5.69299e-06
-1.09953e-15
-5.69299e-06
9.162e-15
-5.69299e-06
1.47349e-15
-5.69299e-06
-1.97604e-14
-5.69299e-06
1.97392e-14
-5.69299e-06
-2.58211e-15
-5.69299e-06
-1.62629e-14
7.85217e-15
-5.69299e-06
-6.08561e-06
6.16148e-16
-6.08561e-06
1.00557e-14
-6.08561e-06
-5.37042e-15
-6.08561e-06
-1.8265e-14
-6.08561e-06
3.63472e-15
-6.08561e-06
1.74529e-14
-6.08561e-06
-9.38386e-15
-6.08561e-06
-5.10448e-15
-6.08561e-06
1.47437e-14
-6.08561e-06
-2.9245e-15
-6.08561e-06
-5.84979e-15
-8.35385e-15
-6.08561e-06
-6.47823e-06
5.71258e-15
-6.47823e-06
-3.65653e-15
-6.47823e-06
3.95187e-16
-6.47823e-06
-7.09911e-15
-6.47823e-06
7.77177e-15
-6.47823e-06
1.42243e-15
-6.47823e-06
-2.16107e-14
-6.47823e-06
1.15482e-14
-6.47823e-06
8.95927e-15
-6.47823e-06
-3.28823e-15
-6.47823e-06
6.00043e-15
-7.77265e-15
-6.47823e-06
-6.87085e-06
1.14041e-14
-6.87085e-06
-1.90559e-14
-6.87085e-06
7.43014e-15
-6.87085e-06
1.22797e-14
-6.87085e-06
-2.1716e-14
-6.87085e-06
1.01462e-14
-6.87085e-06
2.64943e-15
-6.87085e-06
-7.65881e-15
-6.87085e-06
2.38594e-15
-6.87085e-06
-3.67322e-15
-6.87085e-06
6.49026e-16
-8.41176e-15
-6.87085e-06
-7.26347e-06
-1.20846e-14
-7.26347e-06
2.32166e-14
-7.26347e-06
-1.49219e-14
-7.26347e-06
-2.10503e-15
-7.26347e-06
1.98612e-14
-7.26347e-06
-1.80171e-14
-7.26347e-06
-1.02131e-14
-7.26347e-06
1.08841e-14
-7.26347e-06
-4.97639e-15
-7.26347e-06
1.95935e-14
-7.26347e-06
-9.33491e-15
1.34535e-14
-7.26347e-06
-7.65609e-06
-6.77014e-15
-7.65609e-06
7.97702e-15
-7.65609e-06
-8.32639e-15
-7.65609e-06
1.16509e-14
-7.65609e-06
-4.23626e-15
-7.65609e-06
-9.36529e-15
-7.6561e-06
1.76174e-14
-7.65609e-06
-2.63438e-14
-7.65609e-06
2.5772e-15
-7.65609e-06
2.04119e-14
-7.65609e-06
-1.61644e-14
-7.65609e-06
1.39595e-14
-3.33727e-06
2.84061e-15
-3.33727e-06
-3.12044e-15
-3.33727e-06
-2.68405e-15
-3.33727e-06
1.94645e-15
-3.33727e-06
2.34643e-15
-3.33727e-06
2.07046e-15
-3.33727e-06
-4.32425e-15
-3.33727e-06
3.88398e-16
-3.33727e-06
9.02919e-16
-3.33727e-06
8.58504e-15
-3.33727e-06
-6.06218e-15
5.03279e-16
-3.72989e-06
2.50723e-15
-3.72989e-06
-1.09246e-15
-3.72989e-06
-3.71121e-15
-3.72989e-06
5.23466e-15
-3.72989e-06
-1.24502e-14
-3.72989e-06
8.77333e-15
-3.72989e-06
5.89149e-15
-3.72989e-06
-2.05197e-15
-3.72989e-06
-7.54982e-15
-3.72989e-06
5.23796e-15
-3.72989e-06
1.3936e-15
-2.92963e-15
-4.12251e-06
2.04404e-15
-4.12251e-06
-9.10608e-15
-4.12251e-06
-3.96528e-15
-4.12251e-06
1.00972e-14
-4.12251e-06
-1.54248e-15
-4.12251e-06
-5.95179e-15
-4.12251e-06
5.08766e-15
-4.12251e-06
-6.31962e-15
-4.12251e-06
-5.794e-16
-4.12251e-06
1.25617e-15
-4.12251e-06
1.01368e-14
-6.94731e-15
-4.51513e-06
2.35112e-15
-4.51513e-06
5.34161e-15
-4.51513e-06
-5.20048e-15
-4.51513e-06
5.27862e-15
-4.51513e-06
-5.32744e-15
-4.51513e-06
6.00514e-16
-4.51513e-06
-3.78719e-15
-4.51513e-06
7.48348e-15
-4.51513e-06
-1.0408e-14
-4.51513e-06
-3.54481e-15
-4.51513e-06
1.63885e-15
7.16319e-15
-4.90775e-06
-1.36464e-14
-4.90775e-06
1.1795e-14
-4.90775e-06
-5.49552e-15
-4.90775e-06
-6.83444e-15
-4.90775e-06
7.96114e-15
-4.90775e-06
5.22095e-16
-4.90775e-06
-3.12401e-15
-4.90775e-06
1.2094e-15
-4.90775e-06
-2.67373e-15
-4.90775e-06
1.08101e-14
-4.90775e-06
-7.89803e-15
3.22465e-15
-5.30037e-06
-5.78143e-17
-5.30037e-06
2.64216e-15
-5.30037e-06
6.4459e-15
-5.30037e-06
-3.05948e-15
-5.30037e-06
-6.67202e-15
-5.30037e-06
8.83785e-15
-5.30037e-06
2.32157e-15
-5.30037e-06
1.49689e-15
-5.30037e-06
-1.47136e-14
-5.30037e-06
6.33621e-15
-5.30037e-06
2.44478e-15
-1.26785e-15
-5.69299e-06
-1.03548e-15
-5.69299e-06
6.39292e-15
-5.69299e-06
-7.27478e-15
-5.69299e-06
2.63899e-15
-5.69299e-06
9.4233e-15
-5.69299e-06
-1.18069e-14
-5.69299e-06
2.85959e-15
-5.69299e-06
-5.59788e-15
-5.69299e-06
-5.83962e-15
-5.69299e-06
3.37355e-16
-5.69299e-06
1.46594e-14
-6.43759e-15
-6.08561e-06
-3.26695e-15
-6.08561e-06
1.42139e-14
-6.08561e-06
6.37072e-15
-6.08561e-06
-4.83387e-15
-6.08561e-06
-5.9218e-15
-6.08561e-06
-1.6385e-15
-6.08561e-06
3.44717e-15
-6.08561e-06
8.66757e-15
-6.08561e-06
-1.79627e-14
-6.08561e-06
1.8719e-14
-6.08561e-06
3.40292e-15
-1.24489e-14
-6.47823e-06
-4.57449e-15
-6.47823e-06
1.91392e-14
-6.47823e-06
-9.30296e-15
-6.47823e-06
1.56997e-15
-6.47823e-06
-1.14553e-14
-6.47823e-06
8.30803e-15
-6.47823e-06
-1.47144e-14
-6.47823e-06
1.17022e-14
-6.47823e-06
-9.91019e-15
-6.47823e-06
1.29258e-14
-6.47823e-06
-9.72861e-15
7.65768e-15
-6.87085e-06
1.39771e-14
-6.87085e-06
-1.50964e-14
-6.87085e-06
2.84736e-14
-6.87085e-06
-1.72896e-14
-6.87085e-06
-7.24921e-15
-6.87085e-06
8.61887e-15
-6.87085e-06
1.16351e-14
-6.87085e-06
-8.35976e-16
-6.87085e-06
-2.07671e-14
-6.87085e-06
5.94438e-15
-6.87085e-06
4.33195e-15
1.82825e-15
-7.26347e-06
-3.00132e-14
-7.26347e-06
1.10111e-14
-7.26347e-06
-1.27176e-14
-7.26347e-06
1.40551e-14
-7.26347e-06
1.33391e-14
-7.26347e-06
-6.433e-15
-7.26347e-06
1.33387e-15
-7.26347e-06
-7.68763e-15
-7.26347e-06
-1.16662e-14
-7.26347e-06
2.80761e-14
-7.26347e-06
-1.01501e-14
-4.50382e-15
-7.65609e-06
-1.06809e-14
-7.65609e-06
-2.78101e-15
-7.65609e-06
4.27613e-15
-7.65609e-06
5.23384e-15
-7.65609e-06
7.96663e-15
-7.65609e-06
-6.96927e-15
-7.65609e-06
-8.19599e-15
-7.6561e-06
2.518e-14
-7.65609e-06
-3.18251e-14
-7.65609e-06
2.13618e-14
-7.65609e-06
4.95897e-15
-1.15131e-14
-3.33727e-06
6.20536e-15
-3.33727e-06
-1.39225e-15
-3.33727e-06
-1.89778e-15
-3.33727e-06
-8.0732e-15
-3.33727e-06
6.00939e-15
-3.33727e-06
-1.69593e-15
-3.33727e-06
3.85184e-15
-3.33727e-06
-7.92499e-15
-3.33727e-06
1.02066e-14
-3.33727e-06
-4.52065e-15
-3.33727e-06
6.52349e-15
-1.06847e-14
-3.33727e-06
-3.72989e-06
-6.31468e-15
-3.72989e-06
5.17712e-15
-3.72989e-06
1.27976e-15
-3.72989e-06
-1.31792e-15
-3.72989e-06
-6.091e-15
-3.72989e-06
9.2032e-16
-3.72989e-06
-1.64625e-15
-3.72989e-06
3.2616e-15
-3.72989e-06
-1.32913e-15
-3.72989e-06
6.49476e-15
-3.72989e-06
1.18023e-15
-8.6795e-16
-3.72989e-06
-4.12251e-06
-4.1253e-15
-4.12251e-06
-4.03448e-15
-4.12251e-06
4.90948e-15
-4.12251e-06
6.96782e-15
-4.12251e-06
-4.38653e-15
-4.12251e-06
2.37712e-15
-4.12251e-06
-5.18171e-15
-4.12251e-06
5.39889e-15
-4.12251e-06
2.23953e-15
-4.12251e-06
-7.33671e-15
-4.12251e-06
-2.18777e-15
-1.06589e-15
-4.12251e-06
-4.51513e-06
-1.54631e-15
-4.51513e-06
3.79274e-15
-4.51513e-06
-9.50866e-15
-4.51513e-06
-1.90735e-15
-4.51513e-06
1.643e-14
-4.51513e-06
-8.28082e-15
-4.51513e-06
3.0328e-15
-4.51513e-06
9.67448e-16
-4.51513e-06
-2.29047e-15
-4.51513e-06
6.81997e-15
-4.51513e-06
-6.97194e-15
-2.12709e-15
-4.51513e-06
-4.90775e-06
1.52498e-15
-4.90775e-06
-7.52242e-15
-4.90775e-06
1.41278e-14
-4.90775e-06
-1.21423e-14
-4.90775e-06
4.4819e-15
-4.90775e-06
-1.25126e-14
-4.90775e-06
2.19709e-15
-4.90775e-06
3.81828e-15
-4.90775e-06
2.59875e-15
-4.90775e-06
7.24996e-15
-4.90775e-06
1.7886e-15
-1.46064e-15
-4.90775e-06
-5.30037e-06
5.23245e-15
-5.30037e-06
1.31473e-15
-5.30037e-06
-2.12727e-15
-5.30037e-06
-2.36306e-15
-5.30037e-06
2.11732e-15
-5.30037e-06
-1.94386e-16
-5.30037e-06
-7.81382e-15
-5.30037e-06
-1.63062e-15
-5.30037e-06
3.34224e-15
-5.30037e-06
-1.17921e-14
-5.30037e-06
1.08741e-14
-1.71448e-15
-5.30037e-06
-5.69299e-06
9.29879e-15
-5.69299e-06
-1.17045e-14
-5.69299e-06
2.4959e-15
-5.69299e-06
8.33688e-15
-5.69299e-06
-1.47595e-14
-5.69299e-06
6.99178e-15
-5.69299e-06
1.29041e-14
-5.69299e-06
-9.69648e-15
-5.69299e-06
-1.09585e-14
-5.69299e-06
5.89513e-15
-5.69299e-06
5.91919e-15
-3.04231e-15
-5.69299e-06
-6.08561e-06
-1.10522e-14
-6.08561e-06
2.33501e-14
-6.08561e-06
-1.7157e-14
-6.08561e-06
-5.08618e-15
-6.08561e-06
1.54597e-14
-6.08561e-06
-1.82721e-14
-6.08561e-06
1.24248e-14
-6.08561e-06
5.63048e-15
-6.08561e-06
2.89237e-15
-6.08561e-06
-1.47751e-14
-6.08561e-06
1.78111e-14
-1.99746e-14
-6.08561e-06
-6.47823e-06
-7.5581e-15
-6.47823e-06
9.59938e-15
-6.47823e-06
-1.19481e-14
-6.47823e-06
8.46597e-15
-6.47823e-06
-4.94548e-15
-6.47823e-06
1.34118e-14
-6.47823e-06
8.39926e-16
-6.47823e-06
-1.43399e-14
-6.47823e-06
9.7163e-15
-6.47823e-06
5.30166e-15
-6.47823e-06
-7.64427e-15
-2.51645e-15
-6.47823e-06
-6.87085e-06
-3.57164e-15
-6.87085e-06
-5.57177e-15
-6.87085e-06
2.08047e-14
-6.87085e-06
-3.52411e-15
-6.87085e-06
-1.09651e-15
-6.87085e-06
-1.47455e-14
-6.87085e-06
2.47357e-14
-6.87085e-06
-2.25668e-14
-6.87085e-06
1.09868e-14
-6.87085e-06
-1.95862e-14
-6.87085e-06
3.41046e-15
1.71425e-14
-6.87085e-06
-7.26347e-06
1.10227e-15
-7.26347e-06
6.89734e-15
-7.26347e-06
-1.57495e-15
-7.26347e-06
-1.64583e-14
-7.26347e-06
-5.81219e-15
-7.26347e-06
3.07146e-14
-7.26347e-06
-1.44676e-14
-7.26347e-06
6.06972e-15
-7.26347e-06
-6.81954e-15
-7.26347e-06
2.79652e-15
-7.26347e-06
-3.66006e-15
1.65681e-14
-7.26347e-06
-7.65609e-06
6.08365e-15
-7.65609e-06
-1.02238e-14
-7.65609e-06
4.70904e-15
-7.65609e-06
-8.52344e-15
-7.65609e-06
6.61122e-15
-7.65609e-06
1.68517e-16
-7.65609e-06
1.12669e-14
-7.65609e-06
-1.81465e-15
-7.65609e-06
-1.50678e-14
-7.65609e-06
2.73081e-15
-7.65609e-06
1.05189e-14
-7.65609e-06
-2.56817e-14
-3.33727e-06
1.08527e-14
-3.33727e-06
-1.37416e-14
-3.33727e-06
-7.4973e-17
-3.33727e-06
7.11998e-15
-3.33727e-06
-5.77904e-15
-3.33727e-06
1.1126e-14
-3.33727e-06
-6.83042e-15
-3.33727e-06
3.17858e-16
-3.33727e-06
3.31748e-15
-3.33727e-06
-6.85081e-16
-3.33727e-06
1.47914e-15
-3.70939e-15
-3.72989e-06
-3.97972e-16
-3.72989e-06
-1.08624e-15
-3.72989e-06
-8.12226e-16
-3.72989e-06
3.13061e-15
-3.72989e-06
3.93217e-15
-3.72989e-06
-1.12717e-15
-3.72989e-06
2.98676e-15
-3.72989e-06
-2.85804e-15
-3.72989e-06
-4.37268e-15
-3.72989e-06
-4.3546e-15
-3.72989e-06
1.04875e-14
-6.27509e-15
-4.12251e-06
1.10638e-14
-4.12251e-06
-9.09923e-15
-4.12251e-06
-7.76395e-16
-4.12251e-06
7.7828e-15
-4.12251e-06
-6.65629e-15
-4.12251e-06
6.95318e-15
-4.12251e-06
-2.10041e-15
-4.12251e-06
-6.55724e-15
-4.12251e-06
2.56493e-15
-4.12251e-06
8.61019e-15
-4.12251e-06
-1.32138e-14
7.85383e-15
-4.51513e-06
-2.87824e-15
-4.51513e-06
7.0922e-15
-4.51513e-06
-1.72172e-15
-4.51513e-06
-4.14428e-15
-4.51513e-06
-4.00811e-15
-4.51513e-06
7.46669e-15
-4.51513e-06
-8.05142e-15
-4.51513e-06
7.44458e-15
-4.51513e-06
-6.87243e-15
-4.51513e-06
5.08088e-15
-4.51513e-06
-3.80226e-15
5.98355e-15
-4.90775e-06
-3.96182e-15
-4.90775e-06
1.07703e-14
-4.90775e-06
-1.41555e-14
-4.90775e-06
6.38424e-16
-4.90775e-06
9.90342e-16
-4.90775e-06
-1.32045e-15
-4.90775e-06
3.71407e-15
-4.90775e-06
5.20289e-15
-4.90775e-06
2.10241e-15
-4.90775e-06
1.05049e-15
-4.90775e-06
-1.27301e-14
3.54904e-15
-5.30037e-06
8.33812e-15
-5.30037e-06
3.57235e-15
-5.30037e-06
-2.88021e-15
-5.30037e-06
-6.00515e-15
-5.30037e-06
-3.18571e-15
-5.30037e-06
-1.56039e-15
-5.30037e-06
-2.72026e-15
-5.30037e-06
1.39648e-15
-5.30037e-06
1.22194e-14
-5.30037e-06
-3.89941e-15
-5.30037e-06
-1.32772e-15
8.07099e-16
-5.69299e-06
7.96017e-15
-5.69299e-06
-1.12997e-14
-5.69299e-06
1.42217e-15
-5.69299e-06
-5.17083e-16
-5.69299e-06
1.31587e-14
-5.69299e-06
-1.18387e-15
-5.69299e-06
-9.57165e-15
-5.69299e-06
-2.56336e-15
-5.69299e-06
1.00409e-15
-5.69299e-06
-9.26057e-15
-5.69299e-06
1.15359e-14
-2.36555e-15
-6.08561e-06
6.3284e-15
-6.08561e-06
-4.6582e-15
-6.08561e-06
1.56475e-14
-6.08561e-06
-8.20035e-15
-6.08561e-06
-1.93742e-15
-6.08561e-06
9.69276e-15
-6.08561e-06
-9.81278e-15
-6.08561e-06
1.1254e-14
-6.08561e-06
-1.44245e-14
-6.08561e-06
9.28536e-15
-6.08561e-06
1.70688e-15
-6.1333e-15
-6.47823e-06
5.62061e-15
-6.47823e-06
-9.12424e-16
-6.47823e-06
5.53547e-16
-6.47823e-06
-2.00694e-15
-6.47823e-06
-7.22191e-15
-6.47823e-06
1.01306e-14
-6.47823e-06
6.69512e-15
-6.47823e-06
-1.7741e-14
-6.47823e-06
-3.40755e-15
-6.47823e-06
3.23606e-15
-6.47823e-06
1.68483e-14
-1.01776e-14
-6.87085e-06
-1.64705e-14
-6.87085e-06
7.35299e-15
-6.87085e-06
1.64829e-14
-6.87085e-06
-1.07298e-14
-6.87085e-06
-2.63364e-16
-6.87085e-06
-2.30188e-15
-6.87085e-06
-1.55115e-15
-6.87085e-06
-3.4725e-15
-6.87085e-06
1.61966e-14
-6.87085e-06
-2.74032e-15
-6.87085e-06
-2.22916e-14
1.33706e-14
-7.26347e-06
-1.86187e-14
-7.26347e-06
1.22734e-14
-7.26347e-06
-2.53744e-14
-7.26347e-06
2.09792e-14
-7.26347e-06
-6.04875e-15
-7.26347e-06
-2.61748e-15
-7.26347e-06
1.74982e-14
-7.26347e-06
-8.03527e-15
-7.26347e-06
1.01234e-15
-7.26347e-06
-9.33059e-15
-7.26347e-06
-7.11595e-15
1.00216e-14
-7.65609e-06
2.06181e-14
-7.65609e-06
-4.34497e-15
-7.65609e-06
-3.2489e-15
-7.65609e-06
1.02573e-15
-7.65609e-06
-1.48371e-14
-7.65609e-06
1.09392e-14
-7.65609e-06
8.81905e-15
-7.65609e-06
-1.36547e-14
-7.65609e-06
1.44745e-14
-7.6561e-06
1.41325e-14
-7.65609e-06
-2.0738e-14
6.03658e-15
-3.33727e-06
3.28687e-15
-3.33727e-06
-4.3618e-15
-3.33727e-06
-4.78408e-15
-3.33727e-06
2.54432e-15
-3.33727e-06
2.87763e-15
-3.33727e-06
-5.11893e-15
-3.33727e-06
6.44101e-16
-3.33727e-06
4.289e-15
-3.33727e-06
2.17217e-15
-3.33727e-06
-1.83562e-15
-3.33727e-06
6.43888e-15
-9.54536e-15
-3.33727e-06
-3.72989e-06
7.44904e-15
-3.72989e-06
-1.2259e-14
-3.72989e-06
-8.14093e-16
-3.72989e-06
1.17804e-14
-3.72989e-06
-8.29229e-15
-3.72989e-06
-1.63264e-15
-3.72989e-06
-5.3827e-15
-3.72989e-06
9.19205e-15
-3.72989e-06
7.194e-15
-3.72989e-06
-1.37701e-14
-3.72989e-06
5.43159e-15
1.85058e-15
-3.72989e-06
-4.12251e-06
-4.75469e-15
-4.12251e-06
1.26141e-14
-4.12251e-06
-1.30713e-14
-4.12251e-06
6.12056e-15
-4.12251e-06
-5.07345e-15
-4.12251e-06
2.66466e-15
-4.12251e-06
-3.46037e-15
-4.12251e-06
-5.116e-16
-4.12251e-06
-4.46641e-15
-4.12251e-06
9.61625e-15
-4.12251e-06
3.3626e-15
-9.46593e-15
-4.12251e-06
-4.51513e-06
-5.07319e-16
-4.51513e-06
4.74254e-15
-4.51513e-06
-8.49003e-15
-4.51513e-06
-1.63798e-15
-4.51513e-06
-1.23663e-15
-4.51513e-06
9.82116e-15
-4.51513e-06
6.03393e-15
-4.51513e-06
-4.39275e-15
-4.51513e-06
-8.55877e-15
-4.51513e-06
1.13652e-14
-4.51513e-06
-9.24483e-16
-7.80453e-15
-4.51513e-06
-4.90775e-06
4.51998e-15
-4.90775e-06
-4.6321e-15
-4.90775e-06
-3.34547e-15
-4.90775e-06
9.86494e-15
-4.90775e-06
-1.69325e-14
-4.90775e-06
1.813e-14
-4.90775e-06
-1.14774e-15
-4.90775e-06
-1.84913e-14
-4.90775e-06
1.46236e-14
-4.90775e-06
-2.9374e-15
-4.90775e-06
-3.24107e-15
7.73856e-15
-4.90775e-06
-5.30037e-06
1.03272e-14
-5.30037e-06
-1.55098e-14
-5.30037e-06
2.69938e-15
-5.30037e-06
1.92099e-15
-5.30037e-06
7.03028e-15
-5.30037e-06
-1.64259e-15
-5.30037e-06
-1.09766e-15
-5.30037e-06
-4.66818e-15
-5.30037e-06
-6.83351e-15
-5.30037e-06
2.75377e-15
-5.30037e-06
6.56973e-15
-6.3045e-15
-5.30037e-06
-5.69299e-06
-6.59233e-15
-5.69299e-06
-4.38377e-15
-5.69299e-06
9.64455e-15
-5.69299e-06
-7.26619e-15
-5.69299e-06
1.22953e-14
-5.69299e-06
-1.48812e-14
-5.69299e-06
2.21403e-14
-5.69299e-06
9.13806e-16
-5.69299e-06
-1.19295e-14
-5.69299e-06
4.04387e-15
-5.69299e-06
-1.42343e-14
1.19299e-14
-5.69299e-06
-6.08561e-06
-7.92349e-16
-6.08561e-06
8.21224e-15
-6.08561e-06
-6.93248e-15
-6.08561e-06
4.78391e-15
-6.08561e-06
-4.77545e-15
-6.08561e-06
-6.65428e-15
-6.08561e-06
1.41585e-14
-6.08561e-06
-1.59268e-14
-6.08561e-06
1.66852e-14
-6.08561e-06
-1.44554e-14
-6.08561e-06
1.75202e-14
-2.05721e-14
-6.08561e-06
-6.47823e-06
5.61294e-15
-6.47823e-06
-3.87577e-15
-6.47823e-06
2.86881e-16
-6.47823e-06
-6.17575e-15
-6.47823e-06
1.015e-15
-6.47823e-06
2.72506e-15
-6.47823e-06
4.99446e-15
-6.47823e-06
1.59019e-15
-6.47823e-06
-9.69303e-15
-6.47823e-06
8.07909e-15
-6.47823e-06
-5.49451e-15
-6.81757e-16
-6.47823e-06
-6.87085e-06
1.29626e-14
-6.87085e-06
-1.76313e-14
-6.87085e-06
8.40664e-15
-6.87085e-06
-1.846e-14
-6.87085e-06
1.66084e-14
-6.87085e-06
4.17002e-15
-6.87085e-06
-5.35182e-15
-6.87085e-06
-3.1962e-15
-6.87085e-06
8.68867e-15
-6.87085e-06
9.86641e-15
-6.87085e-06
-3.13457e-14
2.16998e-14
-6.87085e-06
-7.26347e-06
-8.68312e-15
-7.26347e-06
-3.11455e-15
-7.26347e-06
1.80087e-14
-7.26347e-06
-3.82851e-15
-7.26347e-06
-4.48602e-15
-7.26347e-06
1.53492e-14
-7.26347e-06
-3.68278e-15
-7.26347e-06
-1.08004e-14
-7.26347e-06
1.67654e-15
-7.26347e-06
4.70429e-15
-7.26347e-06
5.74832e-15
4.46419e-15
-7.26347e-06
-7.65609e-06
-1.34078e-15
-7.6561e-06
1.32419e-14
-7.65609e-06
-3.59117e-15
-7.65609e-06
-1.72755e-14
-7.65609e-06
2.44127e-15
-7.65609e-06
1.56609e-14
-7.65609e-06
-3.67898e-15
-7.65609e-06
-1.67911e-14
-7.65609e-06
-3.29367e-15
-7.65609e-06
1.34049e-14
-7.65609e-06
-3.19258e-15
-7.65609e-06
-1.48077e-14
-3.33727e-06
1.06847e-14
-3.33727e-06
-6.5235e-15
-3.33727e-06
4.52062e-15
-3.33727e-06
-1.02066e-14
-3.33727e-06
7.92499e-15
-3.33727e-06
-3.85184e-15
-3.33727e-06
1.69592e-15
-3.33727e-06
-6.0094e-15
-3.33727e-06
8.07319e-15
-3.33727e-06
1.89777e-15
-3.33727e-06
1.39224e-15
-6.20535e-15
-3.72989e-06
8.67934e-16
-3.72989e-06
-1.18024e-15
-3.72989e-06
-6.49477e-15
-3.72989e-06
1.32912e-15
-3.72989e-06
-3.26161e-15
-3.72989e-06
1.64623e-15
-3.72989e-06
-9.20333e-16
-3.72989e-06
6.091e-15
-3.72989e-06
1.3179e-15
-3.72989e-06
-1.27976e-15
-3.72989e-06
-5.17714e-15
6.31465e-15
-4.12251e-06
1.06588e-15
-4.12251e-06
2.18774e-15
-4.12251e-06
7.33669e-15
-4.12251e-06
-2.23954e-15
-4.12251e-06
-5.39891e-15
-4.12251e-06
5.1817e-15
-4.12251e-06
-2.37712e-15
-4.12251e-06
4.38651e-15
-4.12251e-06
-6.96785e-15
-4.12251e-06
-4.90949e-15
-4.12251e-06
4.03447e-15
4.1253e-15
-4.51513e-06
2.12707e-15
-4.51513e-06
6.97192e-15
-4.51513e-06
-6.81999e-15
-4.51513e-06
2.29045e-15
-4.51513e-06
-9.67474e-16
-4.51513e-06
-3.03282e-15
-4.51513e-06
8.28079e-15
-4.51513e-06
-1.643e-14
-4.51513e-06
1.90734e-15
-4.51513e-06
9.50863e-15
-4.51513e-06
-3.79274e-15
1.54631e-15
-4.90775e-06
1.4606e-15
-4.90775e-06
-1.78861e-15
-4.90775e-06
-7.24998e-15
-4.90775e-06
-2.59876e-15
-4.90775e-06
-3.81832e-15
-4.90775e-06
-2.19712e-15
-4.90775e-06
1.25125e-14
-4.90775e-06
-4.48193e-15
-4.90775e-06
1.21422e-14
-4.90775e-06
-1.41279e-14
-4.90775e-06
7.52239e-15
-1.52505e-15
-5.30037e-06
1.71445e-15
-5.30037e-06
-1.08741e-14
-5.30037e-06
1.17921e-14
-5.30037e-06
-3.34228e-15
-5.30037e-06
1.63057e-15
-5.30037e-06
7.8138e-15
-5.30037e-06
1.94391e-16
-5.30037e-06
-2.11728e-15
-5.30037e-06
2.36306e-15
-5.30037e-06
2.12728e-15
-5.30037e-06
-1.31479e-15
-5.23251e-15
-5.69299e-06
3.04228e-15
-5.69299e-06
-5.91923e-15
-5.69299e-06
-5.89517e-15
-5.69299e-06
1.09585e-14
-5.69299e-06
9.69646e-15
-5.69299e-06
-1.29041e-14
-5.69299e-06
-6.99185e-15
-5.69299e-06
1.47594e-14
-5.69299e-06
-8.33692e-15
-5.69299e-06
-2.49592e-15
-5.69299e-06
1.17045e-14
-9.29878e-15
-6.08561e-06
1.99746e-14
-6.08561e-06
-1.78111e-14
-6.08561e-06
1.4775e-14
-6.08561e-06
-2.89239e-15
-6.08561e-06
-5.63049e-15
-6.08561e-06
-1.24248e-14
-6.08561e-06
1.82721e-14
-6.08561e-06
-1.54598e-14
-6.08561e-06
5.08618e-15
-6.08561e-06
1.71569e-14
-6.08561e-06
-2.33501e-14
1.10522e-14
-6.47823e-06
2.5164e-15
-6.47823e-06
7.64424e-15
-6.47823e-06
-5.30169e-15
-6.47823e-06
-9.71633e-15
-6.47823e-06
1.43399e-14
-6.47823e-06
-8.39995e-16
-6.47823e-06
-1.34119e-14
-6.47823e-06
4.94542e-15
-6.47823e-06
-8.46604e-15
-6.47823e-06
1.19481e-14
-6.47823e-06
-9.59941e-15
7.55803e-15
-6.87085e-06
-1.71427e-14
-6.87085e-06
-3.41054e-15
-6.87085e-06
1.95861e-14
-6.87085e-06
-1.09868e-14
-6.87085e-06
2.25668e-14
-6.87085e-06
-2.47357e-14
-6.87085e-06
1.47455e-14
-6.87085e-06
1.09647e-15
-6.87085e-06
3.52404e-15
-6.87085e-06
-2.08047e-14
-6.87085e-06
5.57178e-15
3.57162e-15
-7.26347e-06
-1.65682e-14
-7.26347e-06
3.66004e-15
-7.26347e-06
-2.79656e-15
-7.26347e-06
6.81955e-15
-7.26347e-06
-6.0697e-15
-7.26347e-06
1.44676e-14
-7.26347e-06
-3.07146e-14
-7.26347e-06
5.81212e-15
-7.26347e-06
1.64582e-14
-7.26347e-06
1.57486e-15
-7.26347e-06
-6.89738e-15
-1.10234e-15
-7.65609e-06
2.56817e-14
-7.65609e-06
-1.05189e-14
-7.65609e-06
-2.73086e-15
-7.65609e-06
1.50678e-14
-7.65609e-06
1.81458e-15
-7.65609e-06
-1.12669e-14
-7.65609e-06
-1.68648e-16
-7.65609e-06
-6.61125e-15
-7.65609e-06
8.52339e-15
-7.65609e-06
-4.70909e-15
-7.65609e-06
1.02238e-14
-6.08375e-15
-3.33727e-06
-5.03292e-16
-3.33727e-06
6.06218e-15
-3.33727e-06
-8.58504e-15
-3.33727e-06
-9.02934e-16
-3.33727e-06
-3.88421e-16
-3.33727e-06
4.32424e-15
-3.33727e-06
-2.07048e-15
-3.33727e-06
-2.34643e-15
-3.33727e-06
-1.94647e-15
-3.33727e-06
2.68404e-15
-3.33727e-06
3.12041e-15
-2.84063e-15
-3.33727e-06
-3.72989e-06
2.9296e-15
-3.72989e-06
-1.39362e-15
-3.72989e-06
-5.23797e-15
-3.72989e-06
7.54981e-15
-3.72989e-06
2.05195e-15
-3.72989e-06
-5.89151e-15
-3.72989e-06
-8.77333e-15
-3.72989e-06
1.24502e-14
-3.72989e-06
-5.23468e-15
-3.72989e-06
3.71121e-15
-3.72989e-06
1.09245e-15
-2.50724e-15
-3.72989e-06
-4.12251e-06
6.9473e-15
-4.12251e-06
-1.01368e-14
-4.12251e-06
-1.25618e-15
-4.12251e-06
5.79391e-16
-4.12251e-06
6.31961e-15
-4.12251e-06
-5.08766e-15
-4.12251e-06
5.95177e-15
-4.12251e-06
1.54246e-15
-4.12251e-06
-1.00973e-14
-4.12251e-06
3.96526e-15
-4.12251e-06
9.10606e-15
-2.04403e-15
-4.12251e-06
-4.51513e-06
-7.16319e-15
-4.51513e-06
-1.63888e-15
-4.51513e-06
3.54481e-15
-4.51513e-06
1.0408e-14
-4.51513e-06
-7.4835e-15
-4.51513e-06
3.78715e-15
-4.51513e-06
-6.00535e-16
-4.51513e-06
5.32742e-15
-4.51513e-06
-5.27864e-15
-4.51513e-06
5.20047e-15
-4.51513e-06
-5.34162e-15
-2.35112e-15
-4.51513e-06
-4.90775e-06
-3.22466e-15
-4.90775e-06
7.89796e-15
-4.90775e-06
-1.08101e-14
-4.90775e-06
2.67371e-15
-4.90775e-06
-1.20942e-15
-4.90775e-06
3.12396e-15
-4.90775e-06
-5.22103e-16
-4.90775e-06
-7.96117e-15
-4.90775e-06
6.83443e-15
-4.90775e-06
5.4955e-15
-4.90775e-06
-1.1795e-14
1.36464e-14
-4.90775e-06
-5.30037e-06
1.26781e-15
-5.30037e-06
-2.44483e-15
-5.30037e-06
-6.33623e-15
-5.30037e-06
1.47135e-14
-5.30037e-06
-1.49685e-15
-5.30037e-06
-2.3216e-15
-5.30037e-06
-8.83788e-15
-5.30037e-06
6.67197e-15
-5.30037e-06
3.05944e-15
-5.30037e-06
-6.44594e-15
-5.30037e-06
-2.6422e-15
5.77917e-17
-5.30037e-06
-5.69299e-06
6.43758e-15
-5.69299e-06
-1.46594e-14
-5.69299e-06
-3.37359e-16
-5.69299e-06
5.83959e-15
-5.69299e-06
5.59787e-15
-5.69299e-06
-2.85958e-15
-5.69299e-06
1.18069e-14
-5.69299e-06
-9.42332e-15
-5.69299e-06
-2.63898e-15
-5.69299e-06
7.27474e-15
-5.69299e-06
-6.39295e-15
1.03545e-15
-5.69299e-06
-6.08561e-06
1.24488e-14
-6.08561e-06
-3.40294e-15
-6.08561e-06
-1.8719e-14
-6.08561e-06
1.79627e-14
-6.08561e-06
-8.66754e-15
-6.08561e-06
-3.44718e-15
-6.08561e-06
1.63851e-15
-6.08561e-06
5.92179e-15
-6.08561e-06
4.83382e-15
-6.08561e-06
-6.37077e-15
-6.08561e-06
-1.42139e-14
3.26695e-15
-6.08561e-06
-6.47823e-06
-7.65772e-15
-6.47823e-06
9.72861e-15
-6.47823e-06
-1.29258e-14
-6.47823e-06
9.91013e-15
-6.47823e-06
-1.17023e-14
-6.47823e-06
1.47144e-14
-6.47823e-06
-8.30808e-15
-6.47823e-06
1.14553e-14
-6.47823e-06
-1.56999e-15
-6.47823e-06
9.30297e-15
-6.47823e-06
-1.91393e-14
4.57446e-15
-6.47823e-06
-6.87085e-06
-1.82828e-15
-6.87085e-06
-4.33199e-15
-6.87085e-06
-5.94438e-15
-6.87085e-06
2.07671e-14
-6.87085e-06
8.35922e-16
-6.87085e-06
-1.16351e-14
-6.87085e-06
-8.61892e-15
-6.87085e-06
7.24915e-15
-6.87085e-06
1.72895e-14
-6.87085e-06
-2.84736e-14
-6.87085e-06
1.50964e-14
-1.39772e-14
-6.87085e-06
-7.26347e-06
4.50374e-15
-7.26347e-06
1.01501e-14
-7.26347e-06
-2.80761e-14
-7.26347e-06
1.16661e-14
-7.26347e-06
7.68757e-15
-7.26347e-06
-1.33391e-15
-7.26347e-06
6.43301e-15
-7.26347e-06
-1.33392e-14
-7.26347e-06
-1.40551e-14
-7.26347e-06
1.27176e-14
-7.26347e-06
-1.10111e-14
3.00132e-14
-7.26347e-06
-7.65609e-06
1.1513e-14
-7.65609e-06
-4.95907e-15
-7.65609e-06
-2.13619e-14
-7.6561e-06
3.18251e-14
-7.65609e-06
-2.51801e-14
-7.65609e-06
8.19592e-15
-7.65609e-06
6.96923e-15
-7.65609e-06
-7.96672e-15
-7.65609e-06
-5.23389e-15
-7.65609e-06
-4.27619e-15
-7.65609e-06
2.78094e-15
-7.65609e-06
1.06808e-14
-3.33727e-06
6.76264e-15
-3.33727e-06
7.84789e-16
-3.33727e-06
1.18765e-15
-3.33727e-06
-6.47261e-15
-3.33727e-06
1.28955e-15
-3.33727e-06
5.95109e-15
-3.33727e-06
-1.37843e-15
-3.33727e-06
-9.27544e-15
-3.33727e-06
4.35018e-15
-3.33727e-06
-1.62742e-15
-3.33727e-06
-2.3803e-15
4.201e-15
-3.72989e-06
-3.48988e-15
-3.72989e-06
4.04109e-15
-3.72989e-06
1.42604e-15
-3.72989e-06
-3.24716e-15
-3.72989e-06
-7.8559e-15
-3.72989e-06
1.2765e-14
-3.72989e-06
-4.8172e-15
-3.72989e-06
1.56386e-15
-3.72989e-06
-2.91273e-15
-3.72989e-06
-5.70364e-15
-3.72989e-06
5.79095e-15
1.6925e-15
-4.12251e-06
-4.55278e-15
-4.12251e-06
-3.45915e-15
-4.12251e-06
1.68571e-15
-4.12251e-06
7.6726e-16
-4.12251e-06
3.51124e-15
-4.12251e-06
-8.99899e-16
-4.12251e-06
-1.01295e-14
-4.12251e-06
1.53325e-14
-4.12251e-06
-1.20619e-14
-4.12251e-06
6.90559e-15
-4.12251e-06
-1.47813e-15
-1.41101e-15
-4.51513e-06
-4.8454e-15
-4.51513e-06
2.92824e-17
-4.51513e-06
1.96666e-15
-4.51513e-06
-3.8523e-15
-4.51513e-06
1.27332e-15
-4.51513e-06
7.23498e-15
-4.51513e-06
2.2468e-15
-4.51513e-06
-4.47325e-15
-4.51513e-06
-4.25032e-15
-4.51513e-06
2.85892e-15
-4.51513e-06
8.51039e-15
-5.10959e-15
-4.90775e-06
-6.09292e-15
-4.90775e-06
-9.30978e-15
-4.90775e-06
2.26889e-15
-4.90775e-06
9.5473e-16
-4.90775e-06
1.57418e-14
-4.90775e-06
-1.06014e-14
-4.90775e-06
-2.4935e-15
-4.90775e-06
1.12411e-14
-4.90775e-06
-1.50729e-14
-4.90775e-06
1.8673e-14
-4.90775e-06
-5.55624e-17
-9.40323e-15
-5.30037e-06
8.07675e-15
-5.30037e-06
-2.64277e-15
-5.30037e-06
-2.63566e-15
-5.30037e-06
-5.66448e-15
-5.30037e-06
2.97598e-15
-5.30037e-06
-1.8307e-15
-5.30037e-06
1.14146e-14
-5.30037e-06
-1.12136e-14
-5.30037e-06
1.57246e-14
-5.30037e-06
-6.62138e-15
-5.30037e-06
-1.06202e-14
7.79153e-15
-5.69299e-06
-7.85222e-15
-5.69299e-06
1.62628e-14
-5.69299e-06
2.58207e-15
-5.69299e-06
-1.97392e-14
-5.69299e-06
1.97604e-14
-5.69299e-06
-1.47353e-15
-5.69299e-06
-9.16201e-15
-5.69299e-06
1.09954e-15
-5.69299e-06
4.15915e-15
-5.69299e-06
-1.24778e-14
-5.69299e-06
1.27478e-15
3.8852e-15
-6.08561e-06
8.35383e-15
-6.08561e-06
5.84976e-15
-6.08561e-06
2.92447e-15
-6.08561e-06
-1.47437e-14
-6.08561e-06
5.10446e-15
-6.08561e-06
9.38386e-15
-6.08561e-06
-1.74529e-14
-6.08561e-06
-3.63477e-15
-6.08561e-06
1.8265e-14
-6.08561e-06
5.37041e-15
-6.08561e-06
-1.00558e-14
-6.16194e-16
-6.47823e-06
7.77261e-15
-6.47823e-06
-6.00047e-15
-6.47823e-06
3.28818e-15
-6.47823e-06
-8.95929e-15
-6.47823e-06
-1.15482e-14
-6.47823e-06
2.16106e-14
-6.47823e-06
-1.42248e-15
-6.47823e-06
-7.77182e-15
-6.47823e-06
7.09906e-15
-6.47823e-06
-3.9525e-16
-6.47823e-06
3.65648e-15
-5.71265e-15
-6.87085e-06
8.41171e-15
-6.87085e-06
-6.49065e-16
-6.87085e-06
3.67317e-15
-6.87085e-06
-2.38595e-15
-6.87085e-06
7.65877e-15
-6.87085e-06
-2.64943e-15
-6.87085e-06
-1.01463e-14
-6.87085e-06
2.1716e-14
-6.87085e-06
-1.22798e-14
-6.87085e-06
-7.4302e-15
-6.87085e-06
1.9056e-14
-1.14041e-14
-7.26347e-06
-1.34536e-14
-7.26347e-06
9.33492e-15
-7.26347e-06
-1.95935e-14
-7.26347e-06
4.97635e-15
-7.26347e-06
-1.08841e-14
-7.26347e-06
1.02131e-14
-7.26347e-06
1.80171e-14
-7.26347e-06
-1.98613e-14
-7.26347e-06
2.10493e-15
-7.26347e-06
1.49218e-14
-7.26347e-06
-2.32166e-14
1.20846e-14
-7.65609e-06
-1.39595e-14
-7.65609e-06
1.61643e-14
-7.65609e-06
-2.0412e-14
-7.65609e-06
-2.57731e-15
-7.6561e-06
2.63438e-14
-7.65609e-06
-1.76174e-14
-7.65609e-06
9.36522e-15
-7.65609e-06
4.23623e-15
-7.65609e-06
-1.16509e-14
-7.65609e-06
8.32638e-15
-7.65609e-06
-7.97707e-15
6.77002e-15
-8.04872e-06
-8.60583e-16
8.04872e-06
-8.04872e-06
-9.3392e-15
-8.04872e-06
-3.77946e-15
-8.04872e-06
-1.84588e-15
-8.04872e-06
1.00824e-15
-8.04872e-06
3.07162e-14
-8.04872e-06
-2.63505e-14
-8.04872e-06
-6.69599e-15
-8.04872e-06
2.18442e-14
-8.04872e-06
-6.21293e-15
-8.04872e-06
-1.88249e-15
1.60204e-14
-8.04872e-06
-8.44134e-06
5.64399e-15
8.44134e-06
-8.44134e-06
5.9125e-15
-8.44134e-06
-2.62744e-14
-8.44134e-06
9.94921e-15
-8.44134e-06
6.11611e-15
-8.44134e-06
1.0022e-14