/*--------------------------------*- C++ -*----------------------------------*\
| =========                 |                                                 |
| \\      /  F ield         | OpenFOAM: The Open Source CFD Toolbox           |
|  \\    /   O peration     | Version:  v1806                                 |
|   \\  /    A nd           | Web:      www.OpenFOAM.com                      |
|    \\/     M anipulation  |                                                 |
\*---------------------------------------------------------------------------*/
FoamFile
{
    version     2.0;
    format      ascii;
    class       volScalarField;
    location    "3";
    object      p;
}
// * * * * * * * * * * * * * * * * * * * * * * * * * * * * * * * * * * * * * //

dimensions      [0 2 -2 0 0 0 0];


internalField   nonuniform List<scalar> 
3072
(
-0.0459583
-0.0460075
-0.0460055
-0.0459492
-0.0458278
-0.0456914
-0.0455657
-0.0454548
-0.0453609
-0.0452696
-0.0451562
-0.0450098
-0.0428668
-0.0429152
-0.0429929
-0.0430617
-0.0431125
-0.0431468
-0.0431683
-0.0431893
-0.0432182
-0.0432377
-0.0431802
-0.0429234
-0.0410931
-0.0411651
-0.0412915
-0.0414208
-0.0415134
-0.0415615
-0.0415653
-0.0415283
-0.0414599
-0.041333
-0.0410586
-0.0405522
-0.038605
-0.0387161
-0.0389424
-0.0391349
-0.0392523
-0.0392869
-0.0392339
-0.0390866
-0.0388341
-0.0384548
-0.0379018
-0.0371261
-0.0360423
-0.0361978
-0.0364598
-0.036659
-0.0367529
-0.0367301
-0.0365748
-0.0362626
-0.0357597
-0.0350536
-0.034129
-0.0330531
-0.0332636
-0.0334171
-0.0336551
-0.0338062
-0.0338359
-0.0337262
-0.0334475
-0.0329489
-0.0321915
-0.031178
-0.0299633
-0.0287197
-0.0302997
-0.0303695
-0.030494
-0.0305299
-0.0304487
-0.0302235
-0.0298212
-0.0291726
-0.0282044
-0.0269712
-0.0255911
-0.024309
-0.0271628
-0.0270523
-0.0269696
-0.0268114
-0.0265978
-0.0262039
-0.0256609
-0.0248851
-0.0238629
-0.0225586
-0.0211628
-0.0199488
-0.0238781
-0.0235117
-0.0231821
-0.0228103
-0.0224037
-0.0217959
-0.021078
-0.0202125
-0.0191765
-0.0180448
-0.016806
-0.015772
-0.020478
-0.0198176
-0.0192915
-0.0187758
-0.0181502
-0.017413
-0.0164908
-0.0154717
-0.0144431
-0.0134524
-0.0126126
-0.0118868
-0.0169107
-0.0160269
-0.0155575
-0.0151293
-0.01449
-0.0136559
-0.0125464
-0.01132
-0.0101621
-0.00922255
-0.00857465
-0.00829076
-0.0133069
-0.0125532
-0.0123916
-0.0122173
-0.0117048
-0.0108254
-0.00962592
-0.00826412
-0.00694933
-0.00589045
-0.00523854
-0.00503432
-0.0448363
-0.0446605
-0.0445074
-0.0443928
-0.0443368
-0.0443713
-0.0445385
-0.0448516
-0.0452198
-0.0454178
-0.0453514
-0.0450702
-0.0424497
-0.0418765
-0.0413428
-0.0409466
-0.04075
-0.0408084
-0.0412211
-0.0419283
-0.0426707
-0.0431301
-0.0431103
-0.0427146
-0.0398041
-0.0389618
-0.038234
-0.0377541
-0.0375904
-0.037789
-0.038266
-0.0390887
-0.0401157
-0.0409534
-0.0411195
-0.0407796
-0.0361865
-0.0352664
-0.034535
-0.0340759
-0.03392
-0.03407
-0.0345666
-0.0354028
-0.0365725
-0.0378382
-0.0385797
-0.0385374
-0.0320056
-0.0311703
-0.0306119
-0.0303016
-0.0302048
-0.0303336
-0.0307416
-0.0314928
-0.0326314
-0.0341186
-0.0354932
-0.0359475
-0.0276878
-0.0270044
-0.026621
-0.0264285
-0.0263798
-0.0264983
-0.0268489
-0.0275023
-0.028519
-0.0299254
-0.0316761
-0.0329324
-0.023379
-0.0228807
-0.0226783
-0.0226069
-0.0226164
-0.0227465
-0.0230607
-0.0236325
-0.0245122
-0.0256845
-0.0273579
-0.0294482
-0.0191728
-0.0188763
-0.0188682
-0.0189373
-0.0190183
-0.0191622
-0.0194516
-0.0199648
-0.0207441
-0.0217568
-0.023176
-0.0255644
-0.0151881
-0.0150845
-0.0152591
-0.0154764
-0.0156492
-0.0158265
-0.0161032
-0.0165628
-0.0172435
-0.0181213
-0.0192853
-0.0213585
-0.0115344
-0.0116037
-0.0119303
-0.0122902
-0.0125731
-0.0128079
-0.0130888
-0.0135007
-0.0140637
-0.0147266
-0.0154479
-0.0167903
-0.00824181
-0.00849416
-0.00894823
-0.00943105
-0.00982837
-0.0101431
-0.0104574
-0.0108458
-0.0112833
-0.0115498
-0.011731
-0.0117997
-0.00524247
-0.00568578
-0.00627699
-0.00687893
-0.00739452
-0.00781771
-0.0082165
-0.00865276
-0.00907024
-0.00915634
-0.00847963
-0.00682091
-0.0460812
-0.0459945
-0.0458917
-0.0457937
-0.0456907
-0.0455797
-0.0454613
-0.0453532
-0.0452618
-0.0451734
-0.0450502
-0.0448921
-0.0428985
-0.0429111
-0.042979
-0.043035
-0.0430696
-0.0430894
-0.0431104
-0.043137
-0.0431718
-0.0431853
-0.0431044
-0.0428058
-0.0411369
-0.0411911
-0.0412974
-0.0414018
-0.0414721
-0.0415035
-0.0415006
-0.0414688
-0.0413977
-0.0412602
-0.0409571
-0.0404011
-0.0385892
-0.0386986
-0.0389155
-0.0390897
-0.0391865
-0.0392022
-0.0391342
-0.0389732
-0.0387166
-0.0383241
-0.03774
-0.03692
-0.03602
-0.0361696
-0.0364139
-0.0365907
-0.0366608
-0.0366142
-0.0364352
-0.0360985
-0.0355757
-0.034842
-0.0338847
-0.0327874
-0.0332291
-0.0333733
-0.0335924
-0.0337215
-0.0337263
-0.0335889
-0.0332779
-0.0327417
-0.0319495
-0.0309013
-0.0296637
-0.0284242
-0.0302581
-0.0303167
-0.0304228
-0.0304414
-0.0303357
-0.0300814
-0.0296407
-0.0289376
-0.0279325
-0.0266671
-0.0252779
-0.024019
-0.0271141
-0.0269941
-0.0268966
-0.0267172
-0.0264901
-0.026071
-0.0254981
-0.0246897
-0.0236011
-0.0222721
-0.0208772
-0.0196956
-0.0238203
-0.0234452
-0.0231014
-0.0227119
-0.0222815
-0.0216702
-0.0209374
-0.0200516
-0.018996
-0.0178118
-0.0165818
-0.0155802
-0.0204081
-0.0197373
-0.0191966
-0.0186701
-0.018045
-0.0172944
-0.0163684
-0.0153482
-0.0143208
-0.0133377
-0.012471
-0.011771
-0.0168257
-0.0159291
-0.0154439
-0.0150091
-0.0143661
-0.013538
-0.0124383
-0.0112286
-0.0100931
-0.00917764
-0.00855031
-0.00825706
-0.0132098
-0.0124366
-0.0122589
-0.0120876
-0.0115779
-0.0107112
-0.00953386
-0.00820413
-0.00692744
-0.00590446
-0.00527453
-0.00506771
-0.0447075
-0.0445235
-0.0443634
-0.044241
-0.0441769
-0.0442076
-0.0443786
-0.0447054
-0.0450977
-0.0452991
-0.0452313
-0.0449467
-0.0422931
-0.0416968
-0.0411527
-0.040751
-0.0405531
-0.0406187
-0.0410404
-0.0417681
-0.0425251
-0.0430068
-0.0429927
-0.0425943
-0.0396041
-0.0387373
-0.0380099
-0.0375421
-0.0373876
-0.0375802
-0.0380757
-0.0389143
-0.039956
-0.0408097
-0.0409895
-0.040653
-0.0359492
-0.0350244
-0.0343062
-0.0338638
-0.033722
-0.0338872
-0.0343855
-0.0352283
-0.0364077
-0.0376877
-0.0384447
-0.0384091
-0.0317432
-0.0309272
-0.0303872
-0.0300881
-0.0299989
-0.0301366
-0.0305519
-0.0313114
-0.0324598
-0.0339584
-0.0353495
-0.0358155
-0.0274216
-0.0267692
-0.026402
-0.0262152
-0.0261711
-0.0262964
-0.0266546
-0.0273171
-0.0283432
-0.0297549
-0.0315137
-0.0327898
-0.023132
-0.022667
-0.0224747
-0.022402
-0.0224114
-0.0225459
-0.0228676
-0.0234484
-0.0243376
-0.0255124
-0.0271824
-0.0292945
-0.0189657
-0.0186983
-0.0186912
-0.0187494
-0.0188239
-0.0189687
-0.0192638
-0.0197849
-0.0205737
-0.0215916
-0.0230072
-0.0254092
-0.0150351
-0.0149512
-0.0151173
-0.0153146
-0.0154738
-0.0156475
-0.0159265
-0.0163917
-0.0170796
-0.0179639
-0.0191287
-0.0212162
-0.0114419
-0.0115181
-0.011828
-0.0121605
-0.0124229
-0.0126485
-0.012928
-0.0133424
-0.0139102
-0.014578
-0.0153024
-0.0166646
-0.00821028
-0.0084549
-0.00888471
-0.00933432
-0.00970497
-0.0100053
-0.0103147
-0.0107033
-0.011144
-0.0114136
-0.011603
-0.0116867
-0.0052625
-0.00568678
-0.00624754
-0.00681073
-0.00729544
-0.00770065
-0.00809184
-0.00852721
-0.00894877
-0.0090419
-0.00838228
-0.00674329
-0.0457094
-0.0458287
-0.0458911
-0.0458719
-0.0457489
-0.0456032
-0.0454714
-0.0453567
-0.045259
-0.0451651
-0.0450492
-0.0449006
-0.0426896
-0.042771
-0.0428639
-0.0429413
-0.0429992
-0.0430357
-0.0430564
-0.0430762
-0.0431037
-0.0431215
-0.043064
-0.0428083
-0.0409127
-0.0410004
-0.0411424
-0.0412833
-0.0413824
-0.041433
-0.0414378
-0.041402
-0.0413353
-0.0412106
-0.0409389
-0.0404351
-0.038453
-0.0385658
-0.0387948
-0.0389908
-0.0391108
-0.039147
-0.0390955
-0.0389503
-0.0387021
-0.0383271
-0.0377778
-0.0370048
-0.0358961
-0.0360491
-0.0363107
-0.0365111
-0.0366061
-0.036584
-0.0364301
-0.036121
-0.0356231
-0.0349219
-0.0340006
-0.0329258
-0.0331242
-0.0332725
-0.0335078
-0.0336587
-0.0336875
-0.033577
-0.0332987
-0.032803
-0.0320506
-0.0310419
-0.0298295
-0.028586
-0.0301671
-0.0302301
-0.03035
-0.0303863
-0.030302
-0.0300741
-0.0296709
-0.0290242
-0.0280614
-0.0268318
-0.0254528
-0.0241705
-0.0270387
-0.0269211
-0.0268343
-0.0266701
-0.0264549
-0.026057
-0.025512
-0.024738
-0.0237225
-0.0224194
-0.0210236
-0.0198088
-0.023764
-0.0233896
-0.0230553
-0.0226778
-0.0222637
-0.0216531
-0.0209315
-0.0200644
-0.0190276
-0.0179094
-0.0166705
-0.0156346
-0.0203764
-0.0197062
-0.0191745
-0.0186526
-0.0180226
-0.0172749
-0.0163461
-0.0153242
-0.0142956
-0.0133062
-0.0124851
-0.0117553
-0.016824
-0.0159258
-0.0154492
-0.0150122
-0.0143618
-0.0135184
-0.0124018
-0.0111737
-0.010019
-0.00908392
-0.00843576
-0.00816473
-0.0132397
-0.0124619
-0.0122918
-0.0121061
-0.0115799
-0.0106897
-0.00948476
-0.00812491
-0.0068182
-0.0057684
-0.00511977
-0.00491289
-0.0447246
-0.0445458
-0.0443894
-0.0442711
-0.0442112
-0.0442411
-0.0444027
-0.044709
-0.0450703
-0.0452638
-0.0451956
-0.0449147
-0.0423355
-0.0417619
-0.0412261
-0.0408262
-0.0406249
-0.0406773
-0.0410814
-0.0417781
-0.0425114
-0.0429656
-0.0429454
-0.0425527
-0.0396886
-0.0388455
-0.0381145
-0.0376301
-0.0374612
-0.0376537
-0.0381226
-0.038935
-0.0399514
-0.0407825
-0.0409487
-0.0406121
-0.0360658
-0.0351438
-0.0344085
-0.0339448
-0.0337839
-0.0339286
-0.0344188
-0.0352469
-0.0364072
-0.037665
-0.0384044
-0.038364
-0.0318776
-0.0310398
-0.0304775
-0.0301628
-0.030062
-0.0301866
-0.0305895
-0.0313346
-0.0324663
-0.033946
-0.0353151
-0.0357685
-0.0275533
-0.0268681
-0.0264817
-0.0262856
-0.0262334
-0.0263481
-0.0266937
-0.0273417
-0.0283531
-0.0297536
-0.0314967
-0.0327473
-0.0232405
-0.022742
-0.0225377
-0.0224633
-0.0224694
-0.0225957
-0.022905
-0.0234705
-0.0243446
-0.0255118
-0.0271763
-0.0292566
-0.0190333
-0.0187376
-0.0187284
-0.0187945
-0.0188719
-0.0190118
-0.0192959
-0.0198024
-0.0205758
-0.0215834
-0.0229923
-0.0253693
-0.0150507
-0.0149479
-0.0151213
-0.0153351
-0.0155038
-0.0156768
-0.0159482
-0.0164015
-0.0170771
-0.0179525
-0.0191046
-0.021168
-0.011402
-0.0114716
-0.0117962
-0.0121514
-0.0124293
-0.0126596
-0.0129352
-0.0133409
-0.0139006
-0.0145721
-0.0152775
-0.0166143
-0.00811486
-0.00836728
-0.0088189
-0.00929532
-0.00968642
-0.00999606
-0.0103048
-0.0106861
-0.0111168
-0.0113727
-0.0115716
-0.0116469
-0.00511877
-0.00556145
-0.00615012
-0.00674382
-0.0072523
-0.0076702
-0.00806354
-0.00849348
-0.00890633
-0.00899122
-0.0083258
-0.00668589
-0.0459672
-0.0458798
-0.0457765
-0.0456778
-0.0455743
-0.0454628
-0.0453441
-0.0452345
-0.0451411
-0.0450508
-0.0449261
-0.0447667
-0.0427846
-0.0427977
-0.0428661
-0.0429226
-0.0429573
-0.0429765
-0.0429956
-0.0430205
-0.0430535
-0.0430652
-0.0429825
-0.0426824
-0.0410252
-0.04108
-0.041188
-0.0412947
-0.0413668
-0.0413991
-0.0413959
-0.0413623
-0.0412884
-0.041148
-0.0408424
-0.0402837
-0.0384813
-0.0385916
-0.0388113
-0.0389885
-0.0390876
-0.0391047
-0.0390368
-0.0388744
-0.0386154
-0.0382201
-0.0376335
-0.0368109
-0.0359153
-0.0360665
-0.0363147
-0.0364952
-0.0365682
-0.0365234
-0.0363449
-0.0360075
-0.0354829
-0.0347468
-0.0337871
-0.0326875
-0.0331285
-0.0332746
-0.0334978
-0.0336306
-0.0336385
-0.0335032
-0.0331932
-0.0326568
-0.0318638
-0.0308138
-0.0295738
-0.0283324
-0.0301618
-0.0302224
-0.0303325
-0.0303536
-0.0302513
-0.0299995
-0.0295599
-0.0288569
-0.0278516
-0.0265849
-0.0251934
-0.0239329
-0.027023
-0.0269044
-0.0268111
-0.0266365
-0.0264088
-0.0259922
-0.0254199
-0.0246113
-0.0235221
-0.0221924
-0.0207959
-0.0196132
-0.0237357
-0.0233617
-0.0230221
-0.0226366
-0.0222128
-0.0215946
-0.0208603
-0.0199743
-0.0189186
-0.0177325
-0.0165019
-0.0155007
-0.0203325
-0.019663
-0.0191261
-0.018599
-0.0179637
-0.0172144
-0.0162865
-0.015267
-0.0142421
-0.0132612
-0.0123907
-0.0116932
-0.016762
-0.0158657
-0.0153838
-0.0149453
-0.014295
-0.0134537
-0.0123475
-0.0111379
-0.0100071
-0.00909733
-0.00847652
-0.00817961
-0.0131591
-0.0123861
-0.0122099
-0.0120268
-0.0115039
-0.0106229
-0.00943657
-0.00810473
-0.00683135
-0.00581468
-0.00519239
-0.00499482
-0.044581
-0.044396
-0.0442351
-0.044112
-0.0440471
-0.0440774
-0.0442482
-0.0445738
-0.0449627
-0.0451629
-0.0450933
-0.0448073
-0.0421688
-0.0415721
-0.0410284
-0.0406276
-0.0404305
-0.0404965
-0.0409184
-0.0416452
-0.0423999
-0.0428749
-0.0428555
-0.0424543
-0.0394843
-0.0386164
-0.0378896
-0.037423
-0.0372693
-0.0374616
-0.0379563
-0.0387921
-0.0398286
-0.0406749
-0.0408489
-0.0405099
-0.0358381
-0.0349127
-0.0341953
-0.0337538
-0.0336124
-0.0337761
-0.0342717
-0.0351093
-0.0362806
-0.037551
-0.0383011
-0.0382629
-0.0316424
-0.0308268
-0.0302873
-0.0299875
-0.0298965
-0.0300319
-0.0304427
-0.0311961
-0.0323356
-0.0338226
-0.0352038
-0.0356658
-0.0273295
-0.0266777
-0.0263099
-0.0261208
-0.0260734
-0.0261948
-0.0265482
-0.0272047
-0.0282227
-0.0296227
-0.0313679
-0.0326363
-0.023046
-0.0225815
-0.0223881
-0.0223122
-0.0223171
-0.0224466
-0.022763
-0.0233375
-0.0242192
-0.025384
-0.0270392
-0.0291386
-0.0188839
-0.0186174
-0.0186093
-0.018664
-0.0187333
-0.0188721
-0.0191607
-0.0196747
-0.0204557
-0.0214648
-0.0228677
-0.0252556
-0.0149572
-0.0148752
-0.0150407
-0.0152345
-0.0153881
-0.0155551
-0.0158268
-0.0162837
-0.0169628
-0.0178384
-0.0189933
-0.021074
-0.0113678
-0.011447
-0.0117573
-0.0120868
-0.0123434
-0.0125618
-0.0128332
-0.0132383
-0.0137963
-0.0144557
-0.0151751
-0.0165413
-0.00813894
-0.00838821
-0.00881997
-0.00926769
-0.00963287
-0.00992549
-0.0102258
-0.0106041
-0.0110342
-0.0112967
-0.0114876
-0.0115847
-0.00519286
-0.0056237
-0.00618821
-0.00675109
-0.00723118
-0.00762853
-0.00800985
-0.00843387
-0.00884343
-0.0089279
-0.00827204
-0.00665702
-0.00916853
-0.00987389
-0.01039
-0.0103635
-0.00981992
-0.00891229
-0.00770201
-0.00631323
-0.00493554
-0.00377086
-0.00298268
-0.00264155
-0.00841907
-0.00943127
-0.00949444
-0.0091683
-0.00852445
-0.00758783
-0.00639338
-0.00503836
-0.00369247
-0.00254865
-0.00173906
-0.00127076
-0.00791509
-0.00838661
-0.00845506
-0.00816035
-0.00755753
-0.00666562
-0.00552833
-0.00423765
-0.00295098
-0.00187594
-0.00113282
-0.000612101
-0.00755438
-0.00783268
-0.00786198
-0.00755968
-0.00696236
-0.00610097
-0.00501941
-0.00379525
-0.00256506
-0.00158453
-0.0010091
-0.000438971
-0.00273244
-0.00319204
-0.00386181
-0.00457718
-0.0052228
-0.00579081
-0.00633875
-0.00691438
-0.0074628
-0.00777718
-0.00770692
-0.00758487
-0.00112422
-0.00136726
-0.00191708
-0.00264219
-0.00338779
-0.00411232
-0.00484614
-0.00561652
-0.00637258
-0.00696384
-0.00728504
-0.00744639
-0.000310399
-0.000417296
-0.000831013
-0.00144163
-0.00216148
-0.00296411
-0.00384112
-0.00477658
-0.00569797
-0.00646478
-0.00697591
-0.00728817
0.000131172
6.82916e-06
-0.000401386
-0.000943388
-0.00162656
-0.00244393
-0.00337636
-0.00438723
-0.00538561
-0.00623332
-0.00682673
-0.00717974
-0.00909159
-0.00971944
-0.010238
-0.010216
-0.00968443
-0.00879866
-0.0076238
-0.00628149
-0.00495453
-0.00383376
-0.00306835
-0.00271789
-0.0083159
-0.0092633
-0.00931865
-0.00899877
-0.00837498
-0.0074713
-0.00632363
-0.00502584
-0.00373992
-0.00264653
-0.00186188
-0.00137769
-0.00783154
-0.00825267
-0.00827401
-0.00797356
-0.00739859
-0.00654897
-0.00546491
-0.00423602
-0.00301316
-0.00199284
-0.00127808
-0.000740166
-0.00749222
-0.00770444
-0.00768494
-0.00738227
-0.00681665
-0.00600039
-0.0049711
-0.00380514
-0.00263405
-0.00170503
-0.00115047
-0.000570446
-0.00278128
-0.00321824
-0.00385569
-0.00452819
-0.00514142
-0.0056903
-0.00622953
-0.00680437
-0.00735926
-0.00768675
-0.00765003
-0.00757452
-0.00118761
-0.00140059
-0.00191341
-0.00259339
-0.00331053
-0.00401916
-0.00474624
-0.0055181
-0.00628468
-0.00689714
-0.00725923
-0.00747973
-0.0003891
-0.000454408
-0.000813646
-0.00137976
-0.00207844
-0.00287049
-0.00374482
-0.00468588
-0.00562281
-0.00641717
-0.00697143
-0.0073354
3.58362e-05
-2.17468e-05
-0.000336058
-0.000859078
-0.00153742
-0.00235254
-0.00328683
-0.00430727
-0.0053254
-0.00620391
-0.00683775
-0.0072306
-0.00913782
-0.00979814
-0.0103034
-0.0102579
-0.00969666
-0.00877954
-0.00756847
-0.00618775
-0.00482462
-0.00367448
-0.00289078
-0.00253686
-0.00840869
-0.00938706
-0.00941789
-0.00906241
-0.00840046
-0.00745723
-0.00626676
-0.00492603
-0.00360213
-0.00248045
-0.00167973
-0.00119164
-0.00792087
-0.00835143
-0.00837792
-0.00804963
-0.00743411
-0.00654046
-0.0054108
-0.00413836
-0.00287898
-0.00183348
-0.00110594
-0.000567425
-0.00757004
-0.00779003
-0.00777333
-0.00744985
-0.0068482
-0.00598968
-0.00491705
-0.00371181
-0.00251022
-0.00156371
-0.00100288
-0.000421393
-0.00261065
-0.00306685
-0.00373332
-0.00443711
-0.00507556
-0.00563953
-0.00618363
-0.00675523
-0.00730189
-0.0076193
-0.00756825
-0.00748416
-0.00101204
-0.00124238
-0.0017833
-0.00249221
-0.00323243
-0.00395601
-0.00468919
-0.0054589
-0.00621654
-0.00681512
-0.00715796
-0.00735659
-0.000222947
-0.000304567
-0.000689121
-0.00128187
-0.00200223
-0.00280805
-0.00368746
-0.00462503
-0.00555047
-0.00632665
-0.00685754
-0.0071986
0.000183737
0.000115101
-0.00022668
-0.000773305
-0.00147069
-0.00229802
-0.00323558
-0.00424948
-0.00525196
-0.00610797
-0.00671659
-0.00708936
-0.00904524
-0.00969143
-0.0101943
-0.010158
-0.00961162
-0.00871236
-0.00752736
-0.00617979
-0.00485197
-0.00373398
-0.0029751
-0.00263496
-0.00827013
-0.00924275
-0.00928878
-0.00895005
-0.00830954
-0.00739227
-0.00623372
-0.00492839
-0.00363813
-0.00254331
-0.00176164
-0.00128716
-0.00777346
-0.00821117
-0.00824202
-0.00792945
-0.00734
-0.00647868
-0.00538458
-0.00414711
-0.00291734
-0.00189189
-0.00117717
-0.000649619
-0.00742255
-0.00764944
-0.00764112
-0.00733559
-0.00676233
-0.00593844
-0.00490135
-0.00372741
-0.00254866
-0.00161124
-0.00105241
-0.0004844
-0.00271014
-0.00315701
-0.00380098
-0.0044752
-0.00508523
-0.00562692
-0.00615613
-0.00671882
-0.00726029
-0.00757729
-0.00754631
-0.00751059
-0.00111211
-0.00133905
-0.00186366
-0.00254909
-0.00326492
-0.00396736
-0.00468476
-0.0054442
-0.00619692
-0.00679844
-0.00716423
-0.00742141
-0.000314753
-0.000395417
-0.000770093
-0.00134549
-0.00204611
-0.00283388
-0.00369919
-0.00462805
-0.00555197
-0.00633727
-0.00689234
-0.0072791
0.000100264
2.85873e-05
-0.000306546
-0.000840606
-0.0015224
-0.00233477
-0.00326121
-0.00427076
-0.00527898
-0.00615434
-0.00679145
-0.00717956
-0.00726659
-0.00738893
-0.00731476
-0.00698388
-0.00643484
-0.00566855
-0.00471436
-0.00363348
-0.0025272
-0.00162439
-0.00110571
-0.00058449
-0.00687282
-0.00698281
-0.00687299
-0.00655345
-0.00604631
-0.00535169
-0.00449449
-0.00353323
-0.00254583
-0.00171849
-0.00127777
-0.000871269
-0.00651927
-0.00660251
-0.00648987
-0.00619564
-0.00573573
-0.00511196
-0.0043469
-0.00349916
-0.00262828
-0.00186439
-0.0014847
-0.00128657
-0.00619787
-0.00626474
-0.00616041
-0.00589419
-0.00548119
-0.00492613
-0.00424737
-0.0035085
-0.00275781
-0.00208048
-0.00171637
-0.00183959
-3.62411e-09
-5.05433e-09
-0.000316238
-0.000791683
-0.00144935
-0.00225377
-0.00317718
-0.0041724
-0.00515105
-0.00599299
-0.00660208
-0.00696729
-0.000186249
-0.000135105
-0.000346952
-0.000777264
-0.00139261
-0.00215667
-0.00303228
-0.00396806
-0.0048824
-0.00567626
-0.00626978
-0.00664252
-0.000406175
-0.000280764
-0.000482585
-0.00087479
-0.00144005
-0.00214728
-0.00295569
-0.00381312
-0.00464493
-0.00537234
-0.00593162
-0.00629786
-0.00063148
-0.000414261
-0.000654338
-0.00102126
-0.00154102
-0.00218819
-0.00292474
-0.00370372
-0.00445448
-0.00511292
-0.00562832
-0.00597762
-0.00721515
-0.0072866
-0.00717932
-0.00685417
-0.00632079
-0.0055858
-0.00467367
-0.0036424
-0.00258904
-0.00173045
-0.00121263
-0.000674081
-0.00684111
-0.00689777
-0.00676494
-0.00644671
-0.00595088
-0.0052817
-0.00446099
-0.00354262
-0.00259957
-0.00180715
-0.00137023
-0.000942907
-0.00648262
-0.00653106
-0.00640284
-0.00610883
-0.00565757
-0.00505472
-0.0043216
-0.00351025
-0.00267472
-0.00193513
-0.00155724
-0.0013507
-0.00616316
-0.00620473
-0.00608935
-0.00582347
-0.0054174
-0.00487935
-0.00422947
-0.00352056
-0.00279788
-0.00213988
-0.00177847
-0.001895
-5.87146e-05
1.51503e-05
-0.000245981
-0.000721752
-0.00137349
-0.00217497
-0.00309975
-0.00410444
-0.0051026
-0.00597325
-0.00661571
-0.00700926
-0.000212493
-0.000105952
-0.000293719
-0.000717456
-0.00132587
-0.00208608
-0.00296259
-0.00390669
-0.004838
-0.00565605
-0.00627629
-0.00667076
-0.000432371
-0.000264974
-0.000441399
-0.00082329
-0.00138113
-0.00208426
-0.00289318
-0.00375745
-0.00460339
-0.00535068
-0.00593179
-0.00631668
-0.00064662
-0.000398735
-0.000619889
-0.00097587
-0.00148808
-0.00213144
-0.00286842
-0.00365287
-0.00441537
-0.00508993
-0.00562316
-0.00598792
-0.00727736
-0.00734824
-0.00724233
-0.00690441
-0.006345
-0.00557534
-0.00462472
-0.0035574
-0.00247572
-0.00160129
-0.00107807
-0.000537468
-0.00687279
-0.00694736
-0.00681554
-0.00648543
-0.00596638
-0.00526599
-0.00440998
-0.00345881
-0.00248981
-0.00168329
-0.0012438
-0.000817127
-0.00651283
-0.00656882
-0.00643999
-0.00613502
-0.00566333
-0.00503316
-0.00426815
-0.00342811
-0.00256931
-0.00181655
-0.00143832
-0.00123635
-0.00618386
-0.00623102
-0.00611415
-0.00583849
-0.00541465
-0.00485346
-0.00417382
-0.0034407
-0.00269744
-0.00202633
-0.00166323
-0.00179274
7.45144e-05
0.000149674
-0.000145306
-0.000641603
-0.00130978
-0.0021218
-0.00304871
-0.00404587
-0.00502739
-0.00587534
-0.00649457
-0.00687206
-9.14591e-05
-7.16571e-06
-0.000201935
-0.000640342
-0.00126217
-0.00203114
-0.00290928
-0.00384663
-0.00476314
-0.00556135
-0.00616207
-0.00654356
-0.000320607
-0.000172523
-0.000353888
-0.000747257
-0.00131587
-0.00202615
-0.00283645
-0.00369547
-0.00452933
-0.00526053
-0.00582586
-0.00620011
-0.000543313
-0.000305557
-0.000534805
-0.000900239
-0.00142123
-0.00207036
-0.00280848
-0.00358929
-0.00434199
-0.00500404
-0.00552482
-0.0058813
-0.00713556
-0.00721653
-0.00712157
-0.00680094
-0.00626681
-0.00552837
-0.0046106
-0.00357318
-0.00251341
-0.00164553
-0.00112025
-0.000591648
-0.00674568
-0.00682285
-0.00670215
-0.00638989
-0.00589518
-0.00522401
-0.00439836
-0.00347534
-0.00252831
-0.00172905
-0.00128349
-0.000861235
-0.00639471
-0.00645426
-0.0063362
-0.0060483
-0.00559919
-0.00499557
-0.00425731
-0.00344261
-0.00260534
-0.0018614
-0.00147392
-0.00126432
-0.00607547
-0.0061263
-0.0060194
-0.00575948
-0.00535616
-0.00481888
-0.00416157
-0.0034507
-0.00272826
-0.00206706
-0.00169682
-0.00179793
-7.15893e-07
6.16315e-05
-0.000224429
-0.000711793
-0.0013677
-0.00216752
-0.00308621
-0.00408236
-0.00507225
-0.00594035
-0.00659188
-0.00698334
-0.000158789
-7.3405e-05
-0.00027666
-0.000709846
-0.00132199
-0.00208139
-0.00295368
-0.00389213
-0.00481884
-0.0056371
-0.00626197
-0.00665259
-0.000382506
-0.000247396
-0.000429755
-0.000818502
-0.00137891
-0.00208162
-0.00288791
-0.00374916
-0.00459332
-0.00534286
-0.00592827
-0.00631078
-0.000603025
-0.000384195
-0.000612726
-0.000973858
-0.00148777
-0.00213096
-0.00286646
-0.00364983
-0.00441148
-0.00508858
-0.00562639
-0.0059925
-0.00590606
-0.0059662
-0.00587437
-0.00563727
-0.00526818
-0.00477922
-0.00417521
-0.00353842
-0.00289561
-0.00235706
-0.00207849
-0.00244749
-0.0056456
-0.00570501
-0.00562675
-0.00541682
-0.00508723
-0.00465126
-0.00412774
-0.00357822
-0.00301469
-0.00257692
-0.00231488
-0.0023373
-0.00541961
-0.0054802
-0.0054149
-0.00522916
-0.0049346
-0.00454624
-0.00408713
-0.00360329
-0.00312898
-0.0027555
-0.00251168
-0.00253048
-0.00522844
-0.00529057
-0.00523659
-0.00507181
-0.00480768
-0.0044604
-0.00405397
-0.00362687
-0.00321754
-0.00288954
-0.00267467
-0.0026474
-0.00506982
-0.00513328
-0.0050889
-0.004942
-0.0047039
-0.0043913
-0.00402795
-0.00364776
-0.0032876
-0.0029958
-0.00280342
-0.00274879
-0.0049403
-0.00500486
-0.00496853
-0.00483667
-0.00462044
-0.00433661
-0.0040082
-0.00366585
-0.0033434
-0.00308
-0.00290353
-0.00283659
-0.00483632
-0.00490183
-0.00487218
-0.00475274
-0.00455453
-0.00429411
-0.00399363
-0.00368123
-0.00338771
-0.00314632
-0.00298181
-0.00290974
-0.00475467
-0.004821
-0.00479681
-0.0046874
-0.00450367
-0.00426187
-0.00398327
-0.00369409
-0.0034225
-0.00319783
-0.00304243
-0.00296868
-0.00469264
-0.00475973
-0.00473989
-0.00463835
-0.00446587
-0.0042384
-0.00397643
-0.00370467
-0.00344927
-0.00323679
-0.00308812
-0.00301428
-0.00464808
-0.00471595
-0.00469945
-0.00460381
-0.00443966
-0.00422266
-0.0039727
-0.00371335
-0.00346917
-0.00326483
-0.00312079
-0.00304744
-0.00461948
-0.00468795
-0.00467391
-0.00458238
-0.0044239
-0.00421392
-0.00397183
-0.00372043
-0.00348314
-0.00328309
-0.00314178
-0.00306889
-0.00460453
-0.00467395
-0.00466157
-0.00457252
-0.00441722
-0.00421094
-0.00397287
-0.0037255
-0.00349167
-0.00329283
-0.00315339
-0.00307966
-0.000545488
-0.000554393
-0.000827619
-0.00117584
-0.00165341
-0.00224191
-0.00290828
-0.00361707
-0.00429109
-0.00488836
-0.00536312
-0.00569285
-0.000656485
-0.000745202
-0.000994572
-0.00132207
-0.00176176
-0.00229609
-0.00290246
-0.0035367
-0.0041474
-0.00469174
-0.00513055
-0.00544177
-0.000797851
-0.000906992
-0.00114361
-0.00145209
-0.00185922
-0.00234828
-0.00289742
-0.00347086
-0.00402611
-0.00452442
-0.00493134
-0.00522532
-0.000943121
-0.00105342
-0.00127353
-0.00156382
-0.00194266
-0.00239322
-0.00289538
-0.0034188
-0.00392743
-0.00438643
-0.00476532
-0.0050434
-0.00107522
-0.00118057
-0.00138466
-0.00165777
-0.00201221
-0.00243079
-0.00289504
-0.00337793
-0.00384814
-0.00427445
-0.00462941
-0.00489329
-0.00118829
-0.00129218
-0.00147775
-0.00173529
-0.00206919
-0.00246177
-0.0028955
-0.00334583
-0.00378492
-0.00418452
-0.00451956
-0.00477126
-0.00128057
-0.00137673
-0.00155307
-0.00179787
-0.00211492
-0.00248674
-0.00289617
-0.00332067
-0.00373496
-0.00411317
-0.00443203
-0.00467362
-0.00135343
-0.00144315
-0.0016124
-0.00184695
-0.00215057
-0.00250612
-0.00289661
-0.00330103
-0.003696
-0.00405749
-0.00436358
-0.00459712
-0.00140867
-0.00149374
-0.00165729
-0.00188353
-0.0021774
-0.00252034
-0.0028965
-0.00328584
-0.0036663
-0.00401517
-0.00431162
-0.00453908
-0.00144798
-0.00152973
-0.00168897
-0.0019092
-0.00219583
-0.0025297
-0.00289563
-0.00327429
-0.0036445
-0.00398446
-0.00427412
-0.00449739
-0.00147307
-0.00155234
-0.00170844
-0.00192502
-0.00220657
-0.00253447
-0.00289382
-0.00326572
-0.00362948
-0.00396388
-0.00424938
-0.00447033
-0.0014891
-0.00156309
-0.00171702
-0.00193258
-0.00221094
-0.0025357
-0.0028917
-0.00326016
-0.00362064
-0.00395215
-0.00423524
-0.00445403
-0.00587443
-0.00591636
-0.00581619
-0.00557953
-0.00521632
-0.00473987
-0.00416476
-0.00355122
-0.00292992
-0.00240661
-0.00213126
-0.0024877
-0.00561861
-0.00566417
-0.0055793
-0.00536971
-0.0050456
-0.00462165
-0.00411979
-0.00359132
-0.00304367
-0.00261897
-0.00236171
-0.00238303
-0.0053973
-0.00544703
-0.0053762
-0.00519074
-0.00490131
-0.00452372
-0.0040816
-0.00361509
-0.00315481
-0.00279168
-0.00255389
-0.00257049
-0.00521023
-0.00526352
-0.00520489
-0.00504038
-0.00478099
-0.00444315
-0.00405053
-0.00363787
-0.0032408
-0.00292194
-0.00271245
-0.00268442
-0.00505503
-0.00511107
-0.00506276
-0.00491614
-0.00468237
-0.00437803
-0.0040262
-0.00365825
-0.00330881
-0.00302511
-0.0028375
-0.00278343
-0.00492832
-0.00498649
-0.0049468
-0.00481523
-0.00460293
-0.00432636
-0.00400777
-0.00367599
-0.003363
-0.00310687
-0.00293481
-0.00286909
-0.00482664
-0.0048865
-0.00485392
-0.00473478
-0.00454012
-0.00428614
-0.00399424
-0.00369112
-0.00340606
-0.00317128
-0.00301095
-0.00294042
-0.00474684
-0.00480806
-0.00478124
-0.00467213
-0.00449161
-0.00425561
-0.00398466
-0.00370379
-0.00343989
-0.00322134
-0.00306993
-0.00299788
-0.00468625
-0.00474861
-0.00472635
-0.00462509
-0.00445557
-0.00423339
-0.00397838
-0.00371423
-0.00346593
-0.00325922
-0.00311441
-0.00304232
-0.00464276
-0.00470616
-0.00468737
-0.00459197
-0.00443057
-0.0042185
-0.00397501
-0.00372278
-0.00348531
-0.00328648
-0.00314621
-0.00307465
-0.00461491
-0.00467904
-0.00466275
-0.00457144
-0.00441557
-0.00421027
-0.00397435
-0.00372974
-0.0034989
-0.00330426
-0.00316664
-0.00309555
-0.00460035
-0.00466548
-0.00465087
-0.004562
-0.00440922
-0.00420749
-0.00397543
-0.00373471
-0.00350719
-0.00331378
-0.00317792
-0.00310605
-0.000545196
-0.000536831
-0.000796065
-0.00113451
-0.0016051
-0.00219028
-0.00285717
-0.00356993
-0.00425405
-0.00486442
-0.00535363
-0.00569601
-0.000645847
-0.00072408
-0.000963891
-0.00128331
-0.00171699
-0.00224855
-0.00285498
-0.00349314
-0.00411197
-0.00466704
-0.00511753
-0.00543904
-0.000780794
-0.000883669
-0.00111304
-0.001415
-0.00181708
-0.00230374
-0.00285313
-0.00342996
-0.00399186
-0.00449899
-0.00491539
-0.00521774
-0.00092184
-0.00102847
-0.00124277
-0.00152785
-0.00190249
-0.00235106
-0.00285354
-0.00337991
-0.00389404
-0.00436034
-0.00474699
-0.00503188
-0.00105094
-0.00115434
-0.00135353
-0.00162259
-0.00197348
-0.00239045
-0.00285506
-0.00334054
-0.0038154
-0.0042478
-0.00460917
-0.00487863
-0.00116168
-0.00126177
-0.00144608
-0.00170071
-0.00203146
-0.0024228
-0.00285696
-0.00330959
-0.00375266
-0.0041574
-0.00449782
-0.00475412
-0.00125256
-0.00134678
-0.00152123
-0.00176389
-0.00207781
-0.00244879
-0.00285873
-0.00328529
-0.00370304
-0.00408567
-0.00440909
-0.00465454
-0.0013245
-0.00141285
-0.00158045
-0.0018137
-0.00211363
-0.00246895
-0.00285999
-0.00326629
-0.00366433
-0.00402967
-0.00433973
-0.00457654
-0.00137914
-0.00146314
-0.00162519
-0.00185006
-0.00214136
-0.00248381
-0.00286049
-0.00325156
-0.0036348
-0.00398711
-0.00428707
-0.00451737
-0.00141807
-0.00149894
-0.00165675
-0.00187568
-0.00216033
-0.00249362
-0.00286005
-0.00324032
-0.00361309
-0.00395621
-0.00424906
-0.00447487
-0.00144296
-0.00152142
-0.00167614
-0.00189151
-0.00217136
-0.00249866
-0.0028585
-0.00323193
-0.00359812
-0.00393549
-0.00422398
-0.00444728
-0.00145867
-0.00153212
-0.00168473
-0.00189903
-0.00217584
-0.00250002
-0.0028565
-0.00322645
-0.00358928
-0.00392367
-0.00420965
-0.00443072
-0.00588638
-0.00593251
-0.00583035
-0.00558478
-0.00520635
-0.00471198
-0.00410615
-0.0034741
-0.00283439
-0.00230065
-0.00202482
-0.00239673
-0.00562306
-0.00567163
-0.00558445
-0.00536673
-0.00502918
-0.00458815
-0.0040632
-0.00351809
-0.00295185
-0.00251863
-0.00225814
-0.00227059
-0.00539548
-0.00544727
-0.00537394
-0.00518101
-0.0048796
-0.0044866
-0.00402583
-0.00354363
-0.00306835
-0.00269607
-0.00245572