/*--------------------------------*- C++ -*----------------------------------*\
| =========                 |                                                 |
| \\      /  F ield         | OpenFOAM: The Open Source CFD Toolbox           |
|  \\    /   O peration     | Version:  v1806                                 |
|   \\  /    A nd           | Web:      www.OpenFOAM.com                      |
|    \\/     M anipulation  |                                                 |
\*---------------------------------------------------------------------------*/
FoamFile
{
    version     2.0;
    format      ascii;
    class       surfaceScalarField;
    location    "3";
    object      phi;
}
// * * * * * * * * * * * * * * * * * * * * * * * * * * * * * * * * * * * * * //

dimensions      [0 3 -1 0 0 0 0];
oriented        oriented;


internalField   nonuniform List<scalar> 
5856
(
5.18332e-09
-5.18336e-09
7.06055e-08
-6.54223e-08
1.47341e-07
-7.67357e-08
2.39044e-07
-9.17024e-08
3.36819e-07
-9.77755e-08
4.31755e-07
-9.49361e-08
5.23973e-07
-9.22185e-08
6.14148e-07
-9.0175e-08
6.91558e-07
-7.74097e-08
7.41564e-07
-5.00063e-08
7.45521e-07
-3.95669e-09
5.93879e-08
6.86133e-07
-3.07127e-08
2.55293e-08
2.78373e-08
-1.23972e-07
1.14433e-07
-1.63332e-07
1.99751e-07
-1.7702e-07
2.76098e-07
-1.74123e-07
3.44094e-07
-1.62933e-07
4.01393e-07
-1.49517e-07
4.45549e-07
-1.34331e-07
4.76729e-07
-1.08589e-07
4.69472e-07
-4.27499e-08
3.82059e-07
8.34569e-08
2.47295e-07
1.94152e-07
5.24055e-08
-2.68762e-08
1.22184e-07
-1.93751e-07
2.05841e-07
-2.46989e-07
2.78813e-07
-2.49991e-07
3.38303e-07
-2.33613e-07
3.80814e-07
-2.05443e-07
3.98374e-07
-1.67077e-07
3.74532e-07
-1.10489e-07
3.01702e-07
-3.57597e-08
1.61782e-07
9.71705e-08
-5.64183e-08
3.01657e-07
5.48644e-07
-3.57768e-07
2.39774e-08
-5.08536e-08
8.11337e-08
-2.50908e-07
1.3711e-07
-3.02965e-07
1.82692e-07
-2.95574e-07
2.18795e-07
-2.69716e-07
2.4321e-07
-2.29858e-07
2.48138e-07
-1.72006e-07
2.20117e-07
-8.24674e-08
1.29545e-07
5.48127e-08
-4.10735e-08
2.67789e-07
-3.00309e-07
5.60893e-07
8.63776e-07
-6.15441e-07
7.89268e-09
-5.87464e-08
3.72853e-08
-2.80301e-07
5.39616e-08
-3.19641e-07
6.8719e-08
-3.10331e-07
8.83978e-08
-2.89395e-07
1.09182e-07
-2.50642e-07
1.15376e-07
-1.782e-07
8.77048e-08
-5.47962e-08
7.16836e-09
1.35349e-07
-1.37796e-07
4.12753e-07
-3.38257e-07
7.61354e-07
1.08816e-06
-5.62645e-07
-2.84956e-08
-3.02509e-08
-6.88684e-08
-2.39928e-07
-1.16583e-07
-2.71926e-07
-1.43908e-07
-2.83007e-07
-1.37955e-07
-2.95348e-07
-1.00967e-07
-2.8763e-07
-5.0225e-08
-2.28942e-07
-1.88842e-08
-8.6137e-08
-3.01972e-08
1.46662e-07
-8.93379e-08
4.71894e-07
-1.76617e-07
8.48633e-07
1.18037e-06
-2.68827e-07
-8.90308e-08
5.87799e-08
-2.22438e-07
-1.0652e-07
-3.48305e-07
-1.46059e-07
-4.26321e-07
-2.04991e-07
-4.36272e-07
-2.85397e-07
-3.73908e-07
-3.49994e-07
-2.58904e-07
-3.43946e-07
-1.24689e-07
-2.20352e-07
-8.37941e-09
3.03528e-08
7.07137e-08
3.92801e-07
1.25613e-07
7.93734e-07
1.13471e-06
1.71279e-07
-1.74414e-07
2.33193e-07
-4.09606e-07
1.28672e-07
-6.09808e-07
5.41439e-08
-7.38402e-07
-7.6398e-08
-7.70548e-07
-2.53251e-07
-6.86225e-07
-4.34317e-07
-5.02349e-07
-5.27823e-07
-2.48817e-07
-4.73884e-07
2.3013e-08
-2.41477e-07
2.76403e-07
1.3941e-07
4.93037e-07
5.77101e-07
9.53634e-07
6.74109e-07
-2.66253e-07
4.99446e-07
-5.67917e-07
4.30335e-07
-7.94175e-07
2.80403e-07
-9.23456e-07
5.28823e-08
-9.53042e-07
-2.23665e-07
-8.57046e-07
-5.30313e-07
-6.53119e-07
-7.3175e-07
-3.47185e-07
-7.79818e-07
3.90633e-08
-6.27725e-07
4.54558e-07
-2.76084e-07
8.4375e-07
1.87909e-07
6.2794e-07
1.16944e-06
-3.08628e-07
8.08074e-07
-5.55774e-07
6.77482e-07
-6.65608e-07
3.90236e-07
-6.86524e-07
7.37987e-08
-6.26126e-07
-2.84063e-07
-5.17502e-07
-6.38937e-07
-3.57888e-07
-8.91364e-07
-1.31701e-07
-1.00601e-06
1.92735e-07
-9.52161e-07
6.25863e-07
-7.09213e-07
1.11544e-06
-3.01667e-07
1.67625e-07
1.57575e-06
-1.03768e-07
9.11841e-07
-5.1515e-08
6.25229e-07
1.06146e-07
2.32575e-07
2.91228e-07
-1.11284e-07
4.64745e-07
-4.57579e-07
5.86357e-07
-7.6055e-07
6.73437e-07
-9.78444e-07
7.53104e-07
-1.08567e-06
8.72034e-07
-1.07109e-06
1.09168e-06
-9.28863e-07
1.44502e-06
-6.55e-07
-2.78106e-07
1.89075e-06
6.84171e-07
2.2767e-07
1.23633e-06
7.30698e-08
1.61347e-06
-1.44562e-07
1.89388e-06
-3.91699e-07
2.08324e-06
-6.46936e-07
2.18566e-06
-8.62966e-07
2.21843e-06
-1.01121e-06
2.20437e-06
-1.07161e-06
2.17064e-06
-1.03736e-06
2.15748e-06
-9.15705e-07
2.22602e-06
-7.23541e-07
2.4156e-06
-4.67685e-07
5.76324e-07
1.09809e-07
4.35672e-07
1.40652e-07
2.8694e-07
1.48733e-07
1.60363e-07
1.26577e-07
9.1615e-08
6.8748e-08
1.00227e-07
-8.61162e-09
1.84787e-07
-8.45605e-08
3.25029e-07
-1.40242e-07
4.02461e-07
-7.74324e-08
3.65881e-07
3.65805e-08
1.87876e-07
1.78005e-07
1.87876e-07
-9.24972e-08
3.96458e-07
-4.29589e-07
4.77743e-07
-7.33017e-07
4.52161e-07
-9.25805e-07
3.19364e-07
-9.73062e-07
1.16005e-07
-8.55749e-07
-1.25925e-07
-6.40294e-07
-3.00015e-07
-3.76497e-07
-4.04038e-07
-9.90078e-08
-3.54922e-07
8.29548e-08
-1.45382e-07
9.27563e-08
1.68204e-07
2.80632e-07
-7.07323e-07
7.46013e-07
-1.03627e-06
8.06686e-07
-1.28484e-06
7.00737e-07
-1.43004e-06
4.64562e-07
-1.47258e-06
1.5855e-07
-1.44295e-06
-1.55555e-07
-1.27688e-06
-4.66085e-07
-9.92429e-07
-6.88493e-07
-6.06051e-07
-7.413e-07
-2.30105e-07
-5.21328e-07
-6.80551e-09
-5.50957e-08
2.73826e-07
-9.29438e-07
1.06001e-06
-1.18536e-06
1.06261e-06
-1.35713e-06
8.72504e-07
-1.45418e-06
5.61615e-07
-1.50434e-06
2.08712e-07
-1.51608e-06
-1.43813e-07
-1.48866e-06
-4.93506e-07
-1.34857e-06
-8.28589e-07
-1.02824e-06
-1.06163e-06
-5.45504e-07
-1.00406e-06
-1.00695e-07
-4.99905e-07
1.73132e-07
-7.63751e-07
1.26112e-06
-9.02354e-07
1.20121e-06
-9.70786e-07
9.40937e-07
-9.97664e-07
5.88492e-07
-1.03125e-06
2.42299e-07
-1.1072e-06
-6.78652e-08
-1.21738e-06
-3.83327e-07
-1.29335e-06
-7.52614e-07
-1.20107e-06
-1.15391e-06
-8.26679e-07
-1.37845e-06
-2.70174e-07
-1.05641e-06
-9.70425e-08
-3.44169e-07
1.33646e-06
-3.87958e-07
1.245e-06
-4.03727e-07
9.56705e-07
-4.14061e-07
5.98826e-07
-4.46882e-07
2.7512e-07
-5.30372e-07
1.56245e-08
-6.94729e-07
-2.1897e-07
-9.17307e-07
-5.30036e-07
-1.07936e-06
-9.9186e-07
-9.69301e-07
-1.48851e-06
-4.77857e-07
-1.54785e-06
-5.74899e-07
2.07302e-07
1.30044e-06
2.26347e-07
1.22595e-06
2.2207e-07
9.60982e-07
1.91125e-07
6.29772e-07
1.32503e-07
3.33742e-07
3.76044e-08
1.10523e-07
-1.21435e-07
-5.99306e-08
-3.73141e-07
-2.7833e-07
-6.8383e-07
-6.81172e-07
-8.67871e-07
-1.30447e-06
-6.15053e-07
-1.80067e-06
-1.18995e-06
8.09475e-07
1.16507e-06
8.81797e-07
1.15363e-06
8.86808e-07
9.55971e-07
8.39113e-07
6.77467e-07
7.55409e-07
4.17446e-07
6.33669e-07
2.32264e-07
4.58107e-07
1.15632e-07
2.09603e-07
-2.98259e-08
-1.18543e-07
-3.53026e-07
-4.6961e-07
-9.53399e-07
-5.40096e-07
-1.73019e-06
-1.73005e-06
1.41089e-06
9.23622e-07
1.5485e-06
1.01603e-06
1.58074e-06
9.23722e-07
1.53059e-06
7.2762e-07
1.42443e-06
5.23605e-07
1.27051e-06
3.8619e-07
1.06139e-06
3.24748e-07
7.93319e-07
2.38245e-07
4.71282e-07
-3.09886e-08
1.10236e-07
-5.92353e-07
-2.0193e-07
-1.41802e-06
-1.93198e-06
1.93839e-06
5.60988e-07
2.16845e-06
7.85964e-07
2.25849e-06
8.33679e-07
2.22832e-06
7.57795e-07
2.10821e-06
6.43718e-07
1.92333e-06
5.71066e-07
1.6887e-06
5.59378e-07
1.40669e-06
5.20253e-07
1.07411e-06
3.01597e-07
6.90057e-07
-2.08304e-07
2.59256e-07
-9.87218e-07
-1.67272e-06
2.32492e-06
1.26819e-07
2.65228e-06
4.58604e-07
2.82939e-06
6.56567e-07
2.85465e-06
7.32533e-07
2.75456e-06
7.43806e-07
2.5696e-06
7.5603e-07
2.33844e-06
7.90539e-07
2.07449e-06
7.84202e-07
1.75356e-06
6.22526e-07
1.32465e-06
2.20609e-07
7.36318e-07
-3.98888e-07
-9.36405e-07
2.71405e-06
-1.71633e-07
3.0278e-06
1.44856e-07
3.26e-06
4.24372e-07
3.35989e-06
6.32643e-07
3.32736e-06
7.76338e-07
3.19876e-06
8.84625e-07
3.02181e-06
9.67489e-07
2.82055e-06
9.85464e-07
2.56881e-06
8.74265e-07
2.15669e-06
6.32724e-07
1.3974e-06
3.60404e-07
4.60997e-07
2.71296e-08
-2.71296e-08
9.84604e-08
-7.13308e-08
1.86592e-07
-8.81314e-08
2.76685e-07
-9.00926e-08
3.64708e-07
-8.80237e-08
4.51056e-07
-8.63478e-08
5.39357e-07
-8.83007e-08
6.27515e-07
-8.81581e-08
7.02152e-07
-7.46368e-08
7.47422e-07
-4.52706e-08
7.43362e-07
4.06042e-09
6.75775e-08
6.75784e-07
-1.74092e-08
-9.72037e-09
4.28328e-08
-1.31573e-07
1.195e-07
-1.64799e-07
1.98922e-07
-1.69515e-07
2.74638e-07
-1.63739e-07
3.43339e-07
-1.55049e-07
4.01073e-07
-1.46035e-07
4.46054e-07
-1.33139e-07
4.77464e-07
-1.06047e-07
4.62897e-07
-3.07036e-08
3.63536e-07
1.03422e-07
2.71366e-07
1.59748e-07
3.05259e-08
-4.02462e-08
9.99658e-08
-2.01013e-07
1.82169e-07
-2.47001e-07
2.56399e-07
-2.43745e-07
3.17398e-07
-2.24739e-07
3.59925e-07
-1.97575e-07
3.76209e-07
-1.62319e-07
3.48792e-07
-1.05722e-07
2.70629e-07
-2.78842e-08
1.23675e-07
1.1625e-07
-1.05908e-07
3.33005e-07
5.83821e-07
-4.18363e-07
1.81536e-08
-5.83998e-08
6.85735e-08
-2.51433e-07
1.19892e-07
-2.9832e-07
1.63399e-07
-2.87252e-07
1.98383e-07
-2.59723e-07
2.20644e-07
-2.19836e-07
2.21101e-07
-1.62776e-07
1.8628e-07
-7.09007e-08
8.72291e-08
7.11663e-08
-9.43614e-08
2.9784e-07
-3.6186e-07
6.00504e-07
8.99443e-07
-6.77482e-07
3.11185e-09
-6.15117e-08
2.91827e-08
-2.77503e-07
4.30961e-08
-3.12233e-07
5.61327e-08
-3.00289e-07
7.37936e-08
-2.77384e-07
9.05649e-08
-2.36607e-07
8.97501e-08
-1.61961e-07
5.43724e-08
-3.5523e-08
-3.55813e-08
1.6112e-07
-1.86911e-07
4.4917e-07
-3.88085e-07
8.01678e-07
1.1165e-06
-6.05147e-07
-3.0473e-08
-3.10387e-08
-7.25057e-08
-2.35471e-07
-1.20386e-07
-2.64353e-07
-1.47714e-07
-2.7296e-07
-1.4278e-07
-2.82318e-07
-1.08858e-07
-2.7053e-07
-6.35081e-08
-2.07311e-07
-4.01485e-08
-5.88826e-08
-5.90168e-08
1.79988e-07
-1.20116e-07
5.10269e-07
-2.02851e-07
8.84413e-07
1.19899e-06
-2.85337e-07
-8.84312e-08
5.73926e-08
-2.20012e-07
-1.0389e-07
-3.4416e-07
-1.40205e-07
-4.20549e-07
-1.96571e-07
-4.29975e-07
-2.72892e-07
-3.68327e-07
-3.32177e-07
-2.56677e-07
-3.18961e-07
-1.25626e-07
-1.89933e-07
-1.38991e-08
6.82612e-08
6.51069e-08
4.31264e-07
1.25486e-07
8.24034e-07
1.14563e-06
1.78847e-07
-1.72143e-07
2.29536e-07
-4.04584e-07
1.28551e-07
-6.01891e-07
5.71015e-08
-7.2794e-07
-7.05224e-08
-7.58972e-07
-2.41859e-07
-6.72223e-07
-4.18926e-07
-4.86139e-07
-5.05045e-07
-2.3297e-07
-4.43103e-07
4.1453e-08
-2.06161e-07
2.95916e-07
1.76801e-07
5.16165e-07
6.03785e-07
9.60851e-07
7.00943e-07
-2.63756e-07
4.93292e-07
-5.63944e-07
4.28739e-07
-7.89012e-07
2.82169e-07
-9.17683e-07
5.81495e-08
-9.45373e-07
-2.1417e-07
-8.46345e-07
-5.17953e-07
-6.3658e-07
-7.1481e-07
-3.23335e-07
-7.56348e-07
6.85153e-08
-5.98012e-07
4.91528e-07
-2.46212e-07
8.83392e-07
2.1192e-07
6.34694e-07
1.20955e-06
-3.09117e-07
8.02409e-07
-5.569e-07
6.76522e-07
-6.66569e-07
3.91838e-07
-6.86357e-07
7.7937e-08
-6.24601e-07
-2.75925e-07
-5.13194e-07
-6.2936e-07
-3.48995e-07
-8.79009e-07
-1.14999e-07
-9.90344e-07
2.20183e-07
-9.33194e-07
6.62504e-07
-6.88533e-07
1.16045e-06
-2.86022e-07
1.73842e-07
1.6213e-06
-1.09568e-07
9.11977e-07
-5.83326e-08
6.25286e-07
1.02609e-07
2.30897e-07
2.92139e-07
-1.11593e-07
4.70138e-07
-4.53924e-07
5.94282e-07
-7.53504e-07
6.83384e-07
-9.6811e-07
7.65944e-07
-1.0729e-06
8.9049e-07
-1.05774e-06
1.11911e-06
-9.17158e-07
1.48088e-06
-6.47789e-07
-2.77355e-07
1.93208e-06
6.78006e-07
2.33972e-07
1.23345e-06
6.98393e-08
1.61639e-06
-1.52036e-07
1.90321e-06
-3.98419e-07
2.09823e-06
-6.48943e-07
2.20373e-06
-8.59002e-07
2.23722e-06
-1.00161e-06
2.22266e-06
-1.05834e-06
2.18869e-06
-1.02377e-06
2.17749e-06
-9.05952e-07
2.25026e-06
-7.2056e-07
2.44533e-06
-4.72424e-07
5.59425e-07
1.1636e-07
4.13227e-07
1.46198e-07
2.59374e-07
1.53853e-07
1.28881e-07
1.30493e-07
5.9752e-08
6.91289e-08
7.19847e-08
-1.22327e-08
1.64645e-07
-9.26599e-08
3.15856e-07
-1.51212e-07
4.0066e-07
-8.48035e-08
3.67231e-07
3.34287e-08
1.89271e-07
1.77961e-07
1.89271e-07
-1.42525e-07
4.18633e-07
-4.89037e-07
4.9271e-07
-7.92309e-07
4.57125e-07
-9.77204e-07
3.15388e-07
-1.01345e-06
1.05373e-07
-8.87944e-07
-1.37736e-07
-6.64768e-07
-3.15835e-07
-3.94995e-07
-4.20985e-07
-1.09754e-07
-3.70044e-07
7.80965e-08
-1.54422e-07
9.19669e-08
1.6409e-07
2.81238e-07
-7.72304e-07
7.72574e-07
-1.09637e-06
8.16777e-07
-1.33438e-06
6.95133e-07
-1.46908e-06
4.50084e-07
-1.50551e-06
1.41806e-07
-1.4664e-06
-1.76845e-07
-1.29855e-06
-4.83689e-07
-1.01188e-06
-7.07652e-07
-6.20929e-07
-7.60994e-07
-2.3719e-07
-5.38161e-07
-7.77639e-09
-6.53232e-08
2.73461e-07
-9.821e-07
1.07719e-06
-1.22182e-06
1.0565e-06
-1.37726e-06
8.50575e-07
-1.46301e-06
5.3583e-07
-1.508e-06
1.86795e-07
-1.52327e-06
-1.6157e-07
-1.49829e-06
-5.08671e-07
-1.36086e-06
-8.45082e-07
-1.0406e-06
-1.08125e-06
-5.53775e-07
-1.02499e-06
-1.03285e-07
-5.15813e-07
1.70176e-07
-7.91399e-07
1.26344e-06
-9.12696e-07
1.17779e-06
-9.6759e-07
9.05469e-07
-9.88032e-07
5.56273e-07
-1.02157e-06
2.20329e-07
-1.10227e-06
-8.08705e-08
-1.21838e-06
-3.92557e-07
-1.30029e-06
-7.63176e-07
-1.21184e-06
-1.1697e-06
-8.37051e-07
-1.39977e-06
-2.75002e-07
-1.07786e-06
-1.04826e-07
-3.48223e-07
1.32633e-06
-3.80894e-07
1.21046e-06
-3.90466e-07
9.15041e-07
-3.99951e-07
5.65758e-07
-4.34969e-07
2.55347e-07
-5.22071e-07
6.23207e-09
-6.91299e-07
-2.23329e-07
-9.19724e-07
-5.3475e-07
-1.08742e-06
-1.00201e-06
-9.80666e-07
-1.50652e-06
-4.86435e-07
-1.57209e-06
-5.91261e-07
2.21167e-07
1.28401e-06
2.43443e-07
1.18819e-06
2.39427e-07
9.19056e-07
2.07234e-07
5.97951e-07
1.46916e-07
3.15664e-07
4.98609e-08
1.03287e-07
-1.12465e-07
-6.10028e-08
-3.68507e-07
-2.78708e-07
-6.84732e-07
-6.85785e-07
-8.74816e-07
-1.31644e-06
-6.238e-07
-1.82311e-06
-1.21506e-06
8.36782e-07
1.14817e-06
9.06335e-07
1.11863e-06
9.07953e-07
9.17437e-07
8.58212e-07
6.47693e-07
7.73424e-07
4.00452e-07
6.50365e-07
2.26346e-07
4.72782e-07
1.1658e-07
2.21517e-07
-2.74433e-08
-1.10553e-07
-3.53714e-07
-4.6715e-07
-9.59842e-07
-5.4387e-07
-1.74639e-06
-1.75893e-06
1.44758e-06
9.1014e-07
1.57882e-06
9.87393e-07
1.60521e-06
8.91048e-07
1.55184e-06
7.01064e-07
1.4444e-06
5.07896e-07
1.28978e-06
3.80968e-07
1.0798e-06
3.26555e-07
8.10159e-07
2.42199e-07
4.85225e-07
-2.87806e-08
1.20375e-07
-5.94992e-07
-1.98503e-07
-1.42751e-06
-1.95743e-06
1.9797e-06
5.51739e-07
2.20235e-06
7.64745e-07
2.28529e-06
8.08105e-07
2.25074e-06
7.35619e-07
2.12898e-06
6.29652e-07
1.94406e-06
5.65889e-07
1.70968e-06
5.6093e-07
1.42689e-06
5.24993e-07
1.09163e-06
3.06483e-07
7.02967e-07
-2.06333e-07
2.66469e-07
-9.91015e-07
-1.69096e-06
2.36498e-06
1.18838e-07
2.68664e-06
4.43082e-07
2.85719e-06
6.37559e-07
2.87792e-06
7.14887e-07
2.77603e-06
7.31541e-07
2.59121e-06
7.50713e-07
2.36062e-06
7.91517e-07
2.09616e-06
7.89453e-07
1.77289e-06
6.29754e-07
1.33956e-06
2.27001e-07
7.45623e-07
-3.97081e-07
-9.4534e-07
2.74635e-06
-1.82184e-07
3.05819e-06
1.31236e-07
3.2863e-06
4.09447e-07
3.38293e-06
6.18265e-07
3.34888e-06
7.65591e-07
3.22007e-06
8.79516e-07
3.04312e-06
9.68476e-07
2.84094e-06
9.91631e-07
2.58698e-06
8.83713e-07
2.17146e-06
6.42522e-07
1.4069e-06
3.67479e-07
4.61556e-07
-2.01224e-09
2.0123e-09
6.40451e-08
-6.60572e-08
1.38983e-07
-7.49383e-08
2.31442e-07
-9.24581e-08
3.31518e-07
-1.00077e-07
4.27978e-07
-9.64589e-08
5.20584e-07
-9.26062e-08
6.10633e-07
-9.00494e-08
6.87913e-07
-7.72798e-08
7.3795e-07
-5.00366e-08
7.42155e-07
-4.20554e-09
5.89779e-08
6.83177e-07
-3.41313e-08
3.61437e-08
2.30383e-08
-1.23227e-07
1.11282e-07
-1.63182e-07
1.96423e-07
-1.77599e-07
2.71113e-07
-1.74767e-07
3.37918e-07
-1.63264e-07
3.94962e-07
-1.4965e-07
4.3949e-07
-1.34578e-07
4.71299e-07
-1.09088e-07
4.6506e-07
-4.37974e-08
3.78582e-07
8.22722e-08
2.45967e-07
1.91593e-07
5.71778e-08
-2.1034e-08
1.24521e-07
-1.9057e-07
2.05937e-07
-2.44598e-07
2.76709e-07
-2.48371e-07
3.34341e-07
-2.324e-07
3.75734e-07
-2.04656e-07
3.93095e-07
-1.67011e-07
3.70142e-07
-1.11625e-07
2.98378e-07
-3.73239e-08
1.59425e-07
9.5155e-08
-5.78926e-08
2.9959e-07
5.46634e-07
-3.5856e-07
2.41651e-08
-4.51991e-08
7.95927e-08
-2.45997e-07
1.34003e-07
-2.99008e-07
1.7848e-07
-2.92848e-07
2.14007e-07
-2.67926e-07
2.38384e-07
-2.29033e-07
2.43773e-07
-1.72401e-07
2.16473e-07
-8.43243e-08
1.27099e-07
5.20506e-08
-4.25104e-08
2.64764e-07
-3.01277e-07
5.58357e-07
8.61649e-07
-6.16293e-07
7.79717e-09
-5.29961e-08
3.54096e-08
-2.7361e-07
5.10877e-08
-3.14686e-07
6.51727e-08
-3.06933e-07
8.44205e-08
-2.87174e-07
1.05054e-07
-2.49666e-07
1.11452e-07
-1.78799e-07
8.43336e-08
-5.72061e-08
4.66207e-09
1.31722e-07
-1.39667e-07
4.09093e-07
-3.39948e-07
7.58639e-07
1.08605e-06
-5.64353e-07
-3.00501e-08
-2.29459e-08
-7.12018e-08
-2.32458e-07
-1.19483e-07
-2.66405e-07
-1.4724e-07
-2.79176e-07
-1.41596e-07
-2.92817e-07
-1.04706e-07
-2.86557e-07
-5.38523e-08
-2.29652e-07
-2.21812e-08
-8.88771e-08
-3.30295e-08
1.42571e-07
-9.17289e-08
4.67792e-07
-1.78784e-07
8.45694e-07
1.17813e-06
-2.70856e-07
-9.02212e-08
6.72753e-08
-2.24419e-07
-9.82603e-08
-3.51048e-07
-1.39776e-07
-4.29158e-07
-2.01066e-07
-4.39224e-07
-2.82751e-07
-3.76944e-07
-3.48836e-07
-2.61912e-07
-3.44685e-07
-1.27579e-07
-2.2321e-07
-1.11042e-08
2.60957e-08
6.84486e-08
3.88239e-07
1.23912e-07
7.9023e-07
1.132e-06
1.70041e-07
-1.75752e-07
2.43028e-07
-4.11312e-07
1.37299e-07
-6.11261e-07
6.01739e-08
-7.40082e-07
-7.22451e-08
-7.72674e-07
-2.50159e-07
-6.88445e-07
-4.33065e-07
-5.04585e-07
-5.28545e-07
-2.50841e-07
-4.76954e-07
2.08447e-08
-2.4559e-07
2.74904e-07
1.3418e-07
4.92541e-07
5.72593e-07
9.50008e-07
6.7453e-07
-2.67018e-07
5.10046e-07
-5.68952e-07
4.39233e-07
-7.95281e-07
2.86503e-07
-9.25274e-07
5.77477e-08
-9.55032e-07
-2.20401e-07
-8.58809e-07
-5.29288e-07
-6.54517e-07
-7.32836e-07
-3.48635e-07
-7.82835e-07
3.83991e-08
-6.32624e-07
4.53776e-07
-2.81196e-07
8.44161e-07
1.82208e-07
6.22997e-07
1.17117e-06
-3.09537e-07
8.19583e-07
-5.56383e-07
6.86079e-07
-6.66932e-07
3.97052e-07
-6.88147e-07
7.89626e-08
-6.27153e-07
-2.81395e-07
-5.17106e-07
-6.39336e-07
-3.56461e-07
-8.93482e-07
-1.30151e-07
-1.00915e-06
1.93541e-07
-9.56315e-07
6.26985e-07
-7.1464e-07
1.11605e-06
-3.06858e-07
1.61452e-07
1.5776e-06
-1.04269e-07
9.23852e-07
-5.14056e-08
6.33215e-07
1.07232e-07
2.38414e-07
2.94576e-07
-1.08381e-07
4.71289e-07
-4.58107e-07
5.95048e-07
-7.63095e-07
6.8287e-07
-9.81304e-07
7.61703e-07
-1.08798e-06
8.78494e-07
-1.07311e-06
1.09544e-06
-9.31587e-07
1.44771e-06
-6.59127e-07
-2.8332e-07
1.89248e-06
6.87477e-07
2.36376e-07
1.24299e-06
7.76983e-08
1.62392e-06
-1.42511e-07
1.90893e-06
-3.93395e-07
2.10202e-06
-6.51196e-07
2.2062e-06
-8.67271e-07
2.23862e-06
-1.01373e-06
2.22236e-06
-1.07172e-06
2.18504e-06
-1.03579e-06
2.1676e-06
-9.14148e-07
2.23226e-06
-7.2379e-07
2.41916e-06
-4.70212e-07
5.73744e-07
1.09433e-07
4.33466e-07
1.40278e-07
2.8514e-07
1.48326e-07
1.58878e-07
1.26262e-07
9.01407e-08
6.87369e-08
9.84145e-08
-8.27383e-09
1.82213e-07
-8.37988e-08
3.21554e-07
-1.39341e-07
3.98895e-07
-7.73411e-08
3.63014e-07
3.58811e-08
1.8646e-07
1.76554e-07
1.8646e-07
-9.4068e-08
3.95094e-07
-4.30197e-07
4.76406e-07
-7.3294e-07
4.5107e-07
-9.25497e-07
3.18819e-07
-9.72967e-07
1.16208e-07
-8.56259e-07
-1.24982e-07
-6.41494e-07
-2.98564e-07
-3.78335e-07
-4.025e-07
-1.01398e-07
-3.54279e-07
8.07807e-08
-1.46298e-07
9.16874e-08
1.65647e-07
2.78147e-07
-7.07513e-07
7.44047e-07
-1.03581e-06
8.04705e-07
-1.28363e-06
6.98892e-07
-1.42797e-06
4.63157e-07
-1.46968e-06
1.57916e-07
-1.43961e-06
-1.55052e-07
-1.27366e-06
-4.64515e-07
-9.89948e-07
-6.86211e-07
-6.04848e-07
-7.39379e-07
-2.29967e-07
-5.21178e-07
-7.08606e-09
-5.72337e-08
2.71061e-07
-9.30002e-07
1.05776e-06
-1.18516e-06
1.05986e-06
-1.35572e-06
8.6945e-07
-1.45135e-06
5.58784e-07
-1.50008e-06
2.06648e-07
-1.51048e-06
-1.44651e-07
-1.48233e-06
-4.92666e-07
-1.34247e-06
-8.26071e-07
-1.02359e-06
-1.05825e-06
-5.43164e-07
-1.00161e-06
-1.00294e-07
-5.00103e-07
1.70767e-07
-7.65115e-07
1.25852e-06
-9.02791e-07
1.19754e-06
-9.69932e-07
9.36592e-07
-9.95442e-07
5.84294e-07
-1.02752e-06
2.38726e-07
-1.10179e-06
-7.03771e-08
-1.21038e-06
-3.84084e-07
-1.28565e-06
-7.50794e-07
-1.19412e-06
-1.14978e-06
-8.22066e-07
-1.37367e-06
-2.68689e-07
-1.05348e-06
-9.79219e-08
-3.45795e-07
1.33346e-06
-3.88773e-07
1.24052e-06
-4.03571e-07
9.5139e-07
-4.12984e-07
5.93707e-07
-4.44757e-07
2.70498e-07
-5.26669e-07
1.15357e-08
-6.89121e-07
-2.21633e-07
-9.10445e-07
-5.29471e-07
-1.07243e-06
-9.87794e-07
-9.63797e-07
-1.4823e-06
-4.75242e-07
-1.54204e-06
-5.73164e-07
2.06438e-07
1.29706e-06
2.25922e-07
1.22103e-06
2.2219e-07
9.55122e-07
1.91875e-07
6.24021e-07
1.34027e-07
3.28346e-07
4.03348e-08
1.05228e-07
-1.17373e-07
-6.39253e-08
-3.6788e-07
-2.78964e-07
-6.78466e-07
-6.77208e-07
-8.63348e-07
-1.29742e-06
-6.12444e-07
-1.79294e-06
-1.18561e-06
8.10354e-07
1.16124e-06
8.82784e-07
1.14861e-06
8.87951e-07
9.49955e-07
8.40676e-07
6.71296e-07
7.57596e-07
4.11426e-07
6.36597e-07
2.26227e-07
4.62018e-07
1.10654e-07
2.14104e-07
-3.10501e-08
-1.14369e-07
-3.48735e-07
-4.66499e-07
-9.4529e-07
-5.38329e-07
-1.72111e-06
-1.72394e-06
1.41332e-06
9.19084e-07
1.55094e-06
1.01099e-06
1.58304e-06
9.17848e-07
1.53304e-06
7.21294e-07
1.42732e-06
5.1715e-07
1.27387e-06
3.79677e-07
1.06513e-06
3.19394e-07
7.97311e-07
2.3677e-07
4.75019e-07
-2.64427e-08
1.12813e-07
-5.83084e-07
-2.00344e-07
-1.40795e-06
-1.92428e-06
1.94093e-06
5.55751e-07
2.17089e-06
7.81035e-07
2.26056e-06
8.28178e-07
2.23034e-06
7.51515e-07
2.11046e-06
6.37029e-07
1.92569e-06
5.64442e-07
1.691e-06
5.5409e-07
1.40898e-06
5.18787e-07
1.077e-06
3.05531e-07
6.91946e-07
-1.98025e-07
2.61189e-07
-9.77196e-07
-1.66309e-06
2.32648e-06
1.21756e-07
2.65291e-06
4.546e-07
2.8289e-06
6.52185e-07
2.85364e-06
7.26781e-07
2.75352e-06
7.37146e-07
2.5685e-06
7.4946e-07
2.33706e-06
7.8553e-07
2.07303e-06
7.82818e-07
1.75258e-06
6.25986e-07
1.32693e-06
2.27625e-07
7.38941e-07
-3.8921e-07
-9.24151e-07
2.71545e-06
-1.74539e-07
3.02661e-06
1.43437e-07
3.25608e-06
4.22722e-07
3.35425e-06
6.28609e-07
3.32102e-06
7.70372e-07
3.19228e-06
8.78207e-07
3.01545e-06
9.62355e-07
2.81499e-06
9.83278e-07
2.56513e-06
8.75849e-07
2.1552e-06
6.3755e-07
1.39824e-06
3.6775e-07
4.7409e-07
2.68205e-08
-2.68205e-08
9.78513e-08
-7.10308e-08
1.85856e-07
-8.80045e-08
2.75876e-07
-9.00202e-08
3.63773e-07
-8.78972e-08
4.49839e-07
-8.60658e-08
5.3764e-07
-8.78011e-08
6.25387e-07
-8.77469e-08
6.99969e-07
-7.45819e-08
7.45397e-07
-4.54285e-08
7.41799e-07
3.59843e-09
6.68408e-08
6.74958e-07
-1.79137e-08
-8.90682e-09
4.25014e-08
-1.31446e-07
1.19551e-07
-1.65054e-07
1.99368e-07
-1.69837e-07
2.75342e-07
-1.63871e-07
3.44109e-07
-1.54833e-07
4.0175e-07
-1.45442e-07
4.46422e-07
-1.32419e-07
4.77459e-07
-1.05619e-07
4.62822e-07
-3.07911e-08
3.63555e-07
1.02866e-07
2.70739e-07
1.59656e-07
3.03843e-08
-3.92912e-08
9.99295e-08
-2.00991e-07
1.82672e-07
-2.47796e-07
2.57534e-07
-2.44699e-07
3.19116e-07
-2.25454e-07
3.62077e-07
-1.97794e-07
3.78495e-07
-1.6186e-07
3.50886e-07
-1.0481e-07
2.72331e-07
-2.70648e-08
1.24916e-07
1.16624e-07
-1.05415e-07
3.33197e-07
5.84506e-07
-4.19182e-07
1.7776e-08
-5.70672e-08
6.85617e-08
-2.51777e-07
1.20416e-07
-2.99651e-07
1.64437e-07
-2.8872e-07
1.99884e-07
-2.609e-07
2.22567e-07
-2.20478e-07
2.23429e-07
-1.62722e-07
1.88731e-07
-7.01112e-08
8.94191e-08
7.22468e-08
-9.2852e-08
2.98895e-07
-3.61819e-07
6.02165e-07
9.0206e-07
-6.79374e-07
2.7651e-09
-5.98323e-08
2.90173e-08
-2.78029e-07
4.3297e-08
-3.1393e-07
5.67892e-08
-3.02212e-07
7.49988e-08
-2.7911e-07
9.23758e-08
-2.37855e-07
9.20245e-08
-1.62371e-07
5.68092e-08
-3.48959e-08
-3.33665e-08
1.62422e-07
-1.85675e-07
4.51203e-07
-3.88564e-07
8.05054e-07
1.12099e-06
-6.07497e-07
-3.11128e-08
-2.87195e-08
-7.31848e-08
-2.35957e-07
-1.20983e-07
-2.66132e-07
-1.47922e-07
-2.75273e-07
-1.4229e-07
-2.84743e-07
-1.07594e-07
-2.7255e-07
-6.15963e-08
-2.08369e-07
-3.79606e-08
-5.85317e-08
-5.71642e-08
1.81626e-07
-1.1932e-07
5.13359e-07
-2.03575e-07
8.8931e-07
1.20501e-06
-2.87592e-07
-8.94291e-08
6.07095e-08
-2.21636e-07
-1.0375e-07
-3.46011e-07
-1.41758e-07
-4.21892e-07
-1.99392e-07
-4.30281e-07
-2.76354e-07
-3.67521e-07
-3.3531e-07
-2.55077e-07
-3.20813e-07
-1.23773e-07
-1.89836e-07
-1.25196e-08
7.03728e-08
6.54611e-08
4.35378e-07
1.24641e-07
8.30129e-07
1.15277e-06
1.76883e-07
-1.7357e-07
2.34279e-07
-4.07003e-07
1.29684e-07
-6.04692e-07
5.59314e-08
-7.30473e-07
-7.36115e-08
-7.59651e-07
-2.47176e-07
-6.71439e-07
-4.23522e-07
-4.84318e-07
-5.07934e-07
-2.31009e-07
-4.43144e-07
4.27903e-08
-2.03427e-07
2.96101e-07
1.82067e-07
5.15255e-07
6.10976e-07
9.68817e-07
6.99206e-07
-2.65539e-07
4.99818e-07
-5.66718e-07
4.30863e-07
-7.92426e-07
2.81639e-07
-9.20528e-07
5.44901e-08
-9.46755e-07
-2.20948e-07
-8.45789e-07
-5.24488e-07
-6.3461e-07
-7.19114e-07
-3.20662e-07
-7.57092e-07
7.05009e-08
-5.9459e-07
4.92366e-07
-2.39798e-07
8.82786e-07
2.20556e-07
6.43639e-07
1.20796e-06
-3.10236e-07
8.10054e-07
-5.59072e-07
6.79699e-07
-6.70128e-07
3.92695e-07
-6.90434e-07
7.47961e-08
-6.27728e-07
-2.83654e-07
-5.15359e-07
-6.36857e-07
-3.50018e-07
-8.84454e-07
-1.14975e-07
-9.92135e-07
2.21211e-07
-9.30776e-07
6.63688e-07
-6.82276e-07
1.16101e-06
-2.76767e-07
1.84262e-07
1.62039e-06
-1.08196e-07
9.18249e-07
-5.8721e-08
6.30225e-07
9.97969e-08
2.34177e-07
2.87678e-07
-1.13085e-07
4.63812e-07
-4.59789e-07
5.86807e-07
-7.59852e-07
6.75196e-07
-9.72844e-07
7.58164e-07
-1.0751e-06
8.84405e-07
-1.05702e-06
1.11524e-06
-9.13106e-07
1.47934e-06
-6.40867e-07
-2.67777e-07
1.93137e-06
6.80351e-07
2.37899e-07
1.23442e-06
7.61513e-08
1.61605e-06
-1.47453e-07
1.90059e-06
-3.97619e-07
2.09152e-06
-6.50724e-07
2.19288e-06
-8.61208e-07
2.22311e-06
-1.00308e-06
2.20683e-06
-1.05881e-06
2.17315e-06
-1.02334e-06
2.16432e-06
-9.04278e-07
2.24076e-06
-7.17307e-07
2.43953e-06
-4.6655e-07
5.59452e-07
1.15506e-07
4.14118e-07
1.45334e-07
2.6109e-07
1.53028e-07
1.31275e-07
1.29815e-07
6.25633e-08
6.87115e-08
7.50065e-08
-1.24432e-08
1.67625e-07
-9.2619e-08
3.18222e-07
-1.50597e-07
4.02085e-07
-8.38632e-08
3.67841e-07
3.4244e-08
1.8929e-07
1.78552e-07
1.8929e-07
-1.42997e-07
4.18159e-07
-4.89979e-07
4.92316e-07
-7.93567e-07
4.56616e-07
-9.78513e-07
3.14762e-07
-1.01451e-06
1.04706e-07
-8.88747e-07
-1.38203e-07
-6.65029e-07
-3.16337e-07
-3.94659e-07
-4.20966e-07
-1.09191e-07
-3.69332e-07
7.83739e-08
-1.53321e-07
9.18184e-08
1.65107e-07
2.81108e-07
-7.74714e-07
7.73691e-07
-1.10016e-06
8.17758e-07
-1.33908e-06
6.95541e-07
-1.47414e-06
4.49817e-07
-1.51037e-06
1.4094e-07
-1.47009e-06
-1.78489e-07
-1.30136e-06
-4.85064e-07
-1.01378e-06
-7.08545e-07
-6.21976e-07
-7.61136e-07
-2.37633e-07
-5.37664e-07
-7.84247e-09
-6.46829e-08
2.73265e-07
-9.85749e-07
1.08007e-06
-1.22658e-06
1.05859e-06
-1.38236e-06
8.51325e-07
-1.4678e-06
5.35258e-07
-1.51211e-06
1.85247e-07
-1.52668e-06
-1.63919e-07
-1.50082e-06
-5.10926e-07
-1.36265e-06
-8.46716e-07
-1.04176e-06
-1.08203e-06
-5.54258e-07
-1.02516e-06
-1.03188e-07
-5.15753e-07
1.70077e-07
-7.95134e-07
1.2677e-06
-9.16958e-07
1.18041e-06
-9.7155e-07
9.05917e-07
-9.91153e-07
5.54861e-07
-1.02357e-06
2.17662e-07
-1.10334e-06
-8.41469e-08
-1.21844e-06
-3.95828e-07
-1.29979e-06
-7.65364e-07
-1.21132e-06
-1.1705e-06
-8.36747e-07
-1.39973e-06
-2.74675e-07
-1.07782e-06
-1.04598e-07
-3.5152e-07
1.33163e-06
-3.84451e-07
1.21334e-06
-3.93531e-07
9.14996e-07
-4.02018e-07
5.63348e-07
-4.35828e-07
2.51472e-07
-5.21645e-07
1.67011e-09
-6.89545e-07
-2.27928e-07
-9.17066e-07
-5.37842e-07
-1.08466e-06
-1.00291e-06
-9.7878e-07
-1.50561e-06
-4.85732e-07
-1.57087e-06
-5.9033e-07
2.18415e-07
1.2901e-06
2.40461e-07
1.1913e-06
2.3688e-07
9.18576e-07
2.05699e-07
5.94529e-07
1.46714e-07
3.10457e-07
5.10096e-08
9.73745e-08
-1.10462e-07
-6.64566e-08
-3.65364e-07
-2.8294e-07
-6.80947e-07
-6.87323e-07
-8.71552e-07
-1.31501e-06
-6.22212e-07
-1.82021e-06
-1.21254e-06
8.34464e-07
1.15484e-06
9.03757e-07
1.122e-06
9.05591e-07
9.16742e-07
8.56653e-07
6.43467e-07
7.73135e-07
3.93975e-07
6.51326e-07
2.19183e-07
4.7478e-07
1.1009e-07
2.24047e-07
-3.22079e-08
-1.07489e-07
-3.55786e-07
-4.63967e-07
-9.5853e-07
-5.41876e-07
-1.7423e-06
-1.75442e-06
1.4454e-06
9.17401e-07
1.57631e-06
9.91101e-07
1.60265e-06
8.90399e-07
1.54964e-06
6.96477e-07
1.44292e-06
5.00699e-07
1.28918e-06
3.72922e-07
1.08008e-06
3.19185e-07
8.11205e-07
2.36668e-07
4.86937e-07
-3.15177e-08
1.2244e-07
-5.94032e-07
-1.96952e-07
-1.42291e-06
-1.95137e-06
1.97757e-06
5.60217e-07
2.19937e-06
7.69303e-07
2.28181e-06
8.07961e-07
2.24705e-06
7.31232e-07
2.12531e-06
6.22444e-07
1.94059e-06
5.57641e-07
1.70679e-06
5.52988e-07
1.42513e-06
5.18321e-07
1.09138e-06
3.02239e-07
7.03878e-07
-2.06535e-07
2.67444e-07
-9.86478e-07
-1.68393e-06
2.36321e-06
1.28386e-07
2.68326e-06
4.49247e-07
2.8523e-06
6.3892e-07
2.87189e-06
7.11641e-07
2.76926e-06
7.25077e-07
2.58417e-06
7.42728e-07
2.35401e-06
7.83148e-07
2.09088e-06
7.81451e-07
1.76982e-06
6.23302e-07
1.33909e-06
2.24199e-07
7.4677e-07
-3.94161e-07
-9.37156e-07
2.7427e-06
-1.74781e-07
3.05412e-06
1.37827e-07
3.28041e-06
4.12628e-07
3.37496e-06
6.17089e-07
3.33938e-06
7.60659e-07
3.20997e-06
8.72138e-07
3.0334e-06
9.59723e-07
2.83251e-06
9.82338e-07
2.58054e-06
8.75267e-07
2.16749e-06
6.37253e-07
1.40582e-06
3.67511e-07
4.68664e-07
3.09254e-06
2.42382e-07
-3.10725e-06
3.24401e-06
-7.83969e-08
3.40107e-06
-3.01619e-07
3.53855e-06
-5.29186e-07
3.62666e-06
-7.35042e-07
3.67146e-06
-9.07769e-07
3.68342e-06
-1.02317e-06
3.67073e-06
-1.05892e-06
3.63579e-06
-1.00242e-06
3.57858e-06
-8.58496e-07
3.50985e-06
-6.54812e-07
-4.2935e-07
3.47151e-06
4.64146e-06
1.4504e-07
-4.54412e-06
4.70538e-06
-1.42316e-07
4.79231e-06
-3.88544e-07
4.86269e-06
-5.99574e-07
4.90773e-06
-7.80076e-07
4.925e-06
-9.25043e-07
4.92255e-06
-1.02072e-06
4.91218e-06
-1.04855e-06
4.90256e-06
-9.92807e-07
4.893e-06
-8.48929e-07
4.87382e-06
-6.35635e-07
-3.93611e-07
4.83808e-06
5.98088e-06
5.95783e-08
-5.89542e-06
6.05998e-06
-2.21417e-07
6.13281e-06
-4.61377e-07
6.18198e-06
-6.48742e-07
6.20074e-06
-7.98838e-07
6.19247e-06
-9.16764e-07
6.16721e-06
-9.95471e-07
6.13556e-06
-1.01689e-06
6.10386e-06
-9.61105e-07
6.07399e-06
-8.19063e-07
6.05055e-06
-6.12192e-07
-3.87468e-07
6.04441e-06
7.32258e-06
-7.25354e-06
7.37883e-06
7.41124e-06
7.41298e-06
7.38561e-06
7.34036e-06
7.29025e-06
7.2449e-06
7.20489e-06
7.15972e-06
7.10882e-06
7.09063e-06
3.5027e-06
-2.02819e-07
3.61487e-06
3.26869e-08
3.75792e-06
2.8132e-07
3.86376e-06
5.26807e-07