/*--------------------------------*- C++ -*----------------------------------*\
| =========                 |                                                 |
| \\      /  F ield         | OpenFOAM: The Open Source CFD Toolbox           |
|  \\    /   O peration     | Version:  v1806                                 |
|   \\  /    A nd           | Web:      www.OpenFOAM.com                      |
|    \\/     M anipulation  |                                                 |
\*---------------------------------------------------------------------------*/
FoamFile
{
    version     2.0;
    format      ascii;
    class       volVectorField;
    location    "3";
    object      U;
}
// * * * * * * * * * * * * * * * * * * * * * * * * * * * * * * * * * * * * * //

dimensions      [0 1 -1 0 0 0 0];


internalField   nonuniform List<vector> 
3072
(
(0.0133235 0.136367 3.17123e-20)
(0.0204347 0.130092 -4.42134e-20)
(0.029564 0.12719 2.81828e-21)
(0.0354296 0.120415 8.65987e-20)
(0.0411867 0.114678 5.06012e-19)
(0.0467126 0.1086 -1.00639e-18)
(0.0517074 0.102188 4.96665e-19)
(0.0561705 0.0956021 1.58864e-19)
(0.0605274 0.0888437 0)
(0.065431 0.0818808 0)
(0.0712384 0.0750475 0)
(0.0777315 0.0700629 0)
(0.00133432 0.152454 9.09926e-20)
(0.00238584 0.150552 -2.25704e-19)
(0.00908886 0.147075 2.27204e-19)
(0.016902 0.142812 -1.44998e-19)
(0.0255221 0.138155 -2.94438e-19)
(0.0341813 0.133177 1.42421e-19)
(0.0423716 0.128123 0)
(0.0501843 0.123196 1.34118e-19)
(0.0581849 0.118162 0)
(0.0674152 0.112303 8.55971e-19)
(0.0798362 0.10496 -8.60377e-19)
(0.0957867 0.0970645 -5.73334e-19)
(0.00745446 0.163615 4.77918e-20)
(0.0100932 0.162106 2.16032e-21)
(0.0168398 0.158098 -1.28207e-19)
(0.0255456 0.153513 1.29991e-19)
(0.0350459 0.148775 5.8844e-21)
(0.0449048 0.143791 -6.34804e-19)
(0.0549937 0.138759 5.05546e-19)
(0.0656957 0.1341 -2.5881e-19)
(0.0782146 0.12976 0)
(0.0934742 0.124765 -2.64679e-19)
(0.112235 0.117987 5.27696e-19)
(0.13491 0.109517 -7.59138e-21)
(0.00266991 0.181545 1.4633e-20)
(0.00425789 0.180303 5.60916e-20)
(0.0128242 0.176838 -1.07827e-19)
(0.0241212 0.1734 -1.078e-19)
(0.0361622 0.169505 -1.011e-19)
(0.0485153 0.164906 4.45592e-19)
(0.0612697 0.1597 -8.93134e-19)
(0.0749204 0.153915 4.50032e-19)
(0.0913873 0.14737 -4.49542e-19)
(0.112356 0.139137 8.89728e-19)
(0.137715 0.128737 -4.53222e-21)
(0.164915 0.117366 -3.86853e-19)
(0.00387643 0.1979 1.85301e-21)
(0.00587517 0.19728 4.70635e-20)
(0.0159884 0.194886 3.69135e-21)
(0.0290553 0.192601 1.00639e-19)
(0.0427741 0.189235 3.97115e-19)
(0.0569377 0.184451 -3.831e-19)
(0.0719376 0.178273 -1.87384e-19)
(0.0882487 0.170701 0)
(0.107087 0.161754 -3.84538e-19)
(0.130139 0.150691 2.39572e-20)
(0.156661 0.136902 -5.20598e-19)
(0.182796 0.122108 2.57041e-20)
(0.00430384 0.215121 -1.3258e-22)
(0.00825902 0.215651 1.20788e-19)
(0.0209956 0.215696 0)
(0.0356206 0.215355 0)
(0.0502486 0.2129 0)
(0.0651163 0.207926 1.7401e-19)
(0.0809264 0.200169 1.74719e-19)
(0.0984047 0.189412 0)
(0.118575 0.176152 -3.19601e-19)
(0.142001 0.160895 1.2168e-18)
(0.167084 0.143249 -5.6288e-19)
(0.189682 0.124845 7.86049e-19)
(0.00749309 0.231788 -1.79235e-21)
(0.0148742 0.234879 -7.40942e-20)
(0.0296896 0.238134 0)
(0.0450079 0.240112 -1.37953e-19)
(0.059633 0.23899 8.732e-21)
(0.0740517 0.234034 0)
(0.0893634 0.224633 0)
(0.10637 0.210397 5.17062e-19)
(0.125745 0.192056 -2.70705e-19)
(0.147537 0.171419 -2.58638e-20)
(0.169653 0.149395 -2.54364e-20)
(0.188214 0.1274 -2.30763e-20)
(0.0132491 0.247751 2.78483e-20)
(0.0250148 0.25502 -8.79178e-20)
(0.0411565 0.26139 5.76005e-20)
(0.0563121 0.265566 1.04167e-19)
(0.0699802 0.266048 1.17803e-19)
(0.0827324 0.261685 0)
(0.0960887 0.25144 0)
(0.111164 0.23456 -2.26411e-20)
(0.128476 0.21134 -2.13711e-19)
(0.14766 0.184648 1.89423e-19)
(0.166348 0.157317 -5.28622e-19)
(0.181285 0.131318 0)
(0.0219796 0.262538 -1.2872e-20)
(0.0377388 0.274748 0)
(0.0538662 0.282431 0)
(0.0675086 0.286746 -9.0577e-20)
(0.0787128 0.287411 -8.7233e-20)
(0.0889049 0.283445 3.12121e-19)
(0.0997021 0.273975 -1.76956e-19)
(0.112457 0.25785 1.59922e-19)
(0.127285 0.233761 0)
(0.143618 0.202605 0)
(0.159374 0.169491 2.75357e-19)
(0.17152 0.138382 -5.97422e-21)
(0.0315041 0.275563 5.37705e-20)
(0.0497079 0.29082 1.45982e-20)
(0.0634292 0.294315 6.49166e-20)
(0.0734595 0.293818 7.85987e-20)
(0.0805366 0.29071 0)
(0.0873747 0.285502 -2.98737e-20)
(0.0960112 0.277962 -1.37027e-19)
(0.107539 0.266273 1.09826e-19)
(0.121563 0.248066 7.20692e-20)
(0.136526 0.221136 1.6961e-19)
(0.150503 0.186688 1.56139e-19)
(0.161187 0.151012 8.25374e-20)
(0.044283 0.2817 -3.29853e-20)
(0.057433 0.292786 -3.21983e-20)
(0.0618579 0.284942 -1.15494e-19)
(0.0659872 0.274893 1.56069e-19)
(0.0693519 0.265936 -5.3091e-20)
(0.0738009 0.259182 -1.08024e-19)
(0.0814524 0.253693 0)
(0.0929685 0.247327 0)
(0.10779 0.237698 -1.6474e-19)
(0.124179 0.221998 -1.52068e-19)
(0.139519 0.197809 -1.42594e-19)
(0.151218 0.166007 -8.88873e-20)
(0.0284503 0.281251 1.89329e-20)
(0.0399619 0.263595 2.05488e-20)
(0.0435649 0.245817 2.50684e-20)
(0.0455033 0.23116 -1.20015e-19)
(0.0480928 0.221075 -7.10736e-20)
(0.052671 0.214941 3.36844e-20)
(0.0604445 0.211137 0)
(0.0718793 0.207889 0)
(0.0867167 0.203537 0)
(0.103961 0.196505 0)
(0.12165 0.184826 -1.86368e-20)
(0.137128 0.166534 4.98733e-20)
(0.0848675 0.0671272 -1.66064e-19)
(0.0932095 0.0647215 8.04842e-19)
(0.103217 0.0605004 -1.6326e-19)
(0.113633 0.0537103 -1.15068e-18)
(0.121411 0.0464152 6.76733e-19)
(0.124329 0.0405001 -6.84254e-19)
(0.123668 0.0361382 3.3621e-19)
(0.121242 0.0296017 3.33194e-19)
(0.118457 0.0187072 8.33719e-20)
(0.118097 0.00417756 1.67351e-19)
(0.121896 -0.0101612 -2.51238e-19)
(0.126528 -0.015866 -2.07954e-20)
(0.114381 0.0911461 -5.66367e-19)
(0.133995 0.0876006 5.58383e-19)
(0.150912 0.0864015 -2.70648e-19)
(0.162012 0.0870946 2.70236e-19)
(0.166615 0.0878945 5.10426e-19)
(0.166057 0.0861453 -2.4751e-19)
(0.162281 0.0805085 -1.25754e-19)
(0.157821 0.0704367 0)
(0.152289 0.0532191 0)
(0.146711 0.0296161 1.49837e-19)
(0.142187 0.00441195 -1.1022e-19)
(0.141226 -0.00889677 7.00743e-23)
(0.158753 0.10189 -6.75297e-19)
(0.179243 0.0968519 4.31602e-19)
(0.193016 0.0948655 -2.13182e-19)
(0.199898 0.0951106 -4.02833e-19)
(0.202039 0.0965548 6.03895e-19)
(0.201429 0.0984688 2.13591e-19)
(0.19854 0.0981365 3.13411e-19)
(0.193883 0.0915352 -2.08278e-19)
(0.187439 0.0745223 0)
(0.178491 0.0448416 0)
(0.166051 0.00910596 0)
(0.155657 -0.0116431 0)
(0.189182 0.107485 7.26643e-19)
(0.206004 0.101305 -3.48091e-19)
(0.214223 0.0995589 0)
(0.216301 0.101389 -3.33369e-19)
(0.21583 0.105125 5.03176e-19)
(0.215349 0.108804 -6.86671e-19)
(0.215797 0.111312 3.3472e-19)
(0.215947 0.110943 -1.60364e-19)
(0.213634 0.101677 8.36015e-20)
(0.206397 0.0758828 0)
(0.191106 0.0323294 -5.17599e-20)
(0.170563 -0.00769009 -2.65546e-20)
(0.203187 0.109637 2.76807e-19)
(0.214307 0.102063 2.82647e-19)
(0.217034 0.0995153 -2.85594e-19)
(0.215474 0.0999003 -1.76637e-20)
(0.21393 0.100986 2.95252e-19)
(0.215013 0.102608 1.39693e-19)
(0.219048 0.105963 0)
(0.224733 0.11061 2.97869e-19)
(0.229257 0.112124 -2.18623e-19)
(0.228715 0.0992161 0)
(0.217848 0.0597596 8.55871e-20)
(0.192864 0.00252156 4.7514e-20)
(0.205159 0.109696 -4.9144e-19)
(0.211381 0.100722 0)
(0.210712 0.0976086 2.40317e-19)
(0.208035 0.0974174 -5.12554e-19)
(0.207212 0.0971564 0)
(0.209591 0.0958302 1.01566e-19)
(0.215573 0.0952159 1.27896e-19)
(0.224803 0.0988041 -2.47976e-19)
(0.235062 0.106616 1.19544e-19)
(0.242382 0.108621 -6.37416e-20)
(0.241621 0.0840474 2.99848e-20)
(0.222534 0.0202069 -3.94199e-20)
(0.199637 0.109338 -1.80299e-19)
(0.202985 0.0984646 1.88487e-20)
(0.201343 0.0944113 0)
(0.199571 0.0936888 -2.01337e-19)
(0.200576 0.0926167 2.07527e-19)
(0.204696 0.0896072 -2.5081e-19)
(0.211621 0.0855017 2.1484e-19)
(0.221686 0.0843299 0)
(0.234099 0.0909793 -9.64362e-20)
(0.246144 0.102543 -4.19112e-20)
(0.256691 0.0987085 -3.03077e-20)
(0.253365 0.0446037 4.71411e-20)
(0.189883 0.109919 1.46202e-19)
(0.192058 0.0961739 1.43542e-20)
(0.190915 0.0899999 1.41228e-20)
(0.190531 0.0880417 5.96559e-22)
(0.192984 0.0863104 -1.54834e-19)
(0.198526 0.082448 -2.89332e-20)
(0.206958 0.0766218 0)
(0.217774 0.0721044 -7.87439e-20)
(0.230237 0.0739161 9.60387e-20)
(0.242287 0.085989 1.39974e-19)
(0.259243 0.099301 -1.29817e-19)
(0.276511 0.0688172 -1.14244e-20)
(0.178293 0.112618 -2.44688e-21)
(0.180097 0.0948875 -1.24432e-20)
(0.1797 0.0853689 1.20222e-19)
(0.180386 0.0812859 1.11348e-19)
(0.183978 0.0786161 -2.28737e-19)
(0.190988 0.0741037 -1.32282e-19)
(0.201134 0.0669991 2.94505e-19)
(0.213112 0.0604766 -1.09537e-19)
(0.22578 0.0596816 0)
(0.236988 0.0675762 0)
(0.253154 0.0858094 2.60211e-20)
(0.285709 0.0822781 -7.79669e-21)
(0.167039 0.119879 -1.56222e-19)
(0.168749 0.0967443 -1.16898e-20)
(0.168816 0.0824189 1.35218e-19)
(0.17015 0.0748527 8.09312e-20)
(0.174713 0.0702329 -8.21116e-20)
(0.183161 0.0647409 0)
(0.194733 0.056753 -6.45892e-20)
(0.207487 0.0487433 6.61985e-20)
(0.220123 0.046048 0)
(0.231903 0.0523209 -2.74301e-20)
(0.248463 0.0664108 6.72979e-20)
(0.28245 0.0766573 2.63326e-20)
(0.157819 0.13281 8.68577e-20)
(0.160131 0.104548 0)
(0.160652 0.0842093 -1.26462e-19)
(0.1623 0.0713497 5.79162e-20)
(0.167261 0.0630232 -5.821e-20)
(0.176195 0.0554904 5.48852e-20)
(0.187891 0.0465532 -1.50557e-20)
(0.200052 0.0376034 7.64359e-20)
(0.211901 0.032876 -6.5777e-20)
(0.223703 0.0359935 -1.95356e-20)
(0.244042 0.0464805 -3.30631e-21)
(0.272586 0.0516985 -1.20129e-20)
(0.147969 0.141738 -1.30344e-19)
(0.153526 0.11476 0)
(0.155887 0.0908551 -5.83228e-20)
(0.158112 0.0725315 4.02975e-20)
(0.162652 0.0591261 -4.00605e-20)
(0.170343 0.0481572 -1.72136e-19)
(0.18006 0.0375937 -3.13245e-20)
(0.189695 0.027828 2.40496e-20)
(0.198855 0.0214092 5.92475e-20)
(0.20958 0.0198727 0)
(0.230679 0.0206859 0)
(0.252802 0.0101449 -5.8636e-21)
(0.132334 -0.0123436 -8.25403e-22)
(0.129557 -0.0207955 0)
(0.125094 -0.0278285 8.4525e-20)
(0.119608 -0.0344724 -8.59421e-20)
(0.113756 -0.0406641 -1.64612e-19)
(0.107746 -0.0463119 1.6247e-19)
(0.101558 -0.0513547 -1.64499e-19)
(0.0951279 -0.0558721 -6.5183e-19)
(0.0884145 -0.0603189 1.1148e-18)
(0.0814749 -0.0653606 1.52056e-19)
(0.074861 -0.0713013 0)
(0.0702697 -0.0778703 0)
(0.151095 0.00180833 -1.07933e-21)
(0.150334 -0.00112628 0)
(0.146761 -0.00867321 -1.49965e-19)
(0.142538 -0.0175872 4.39714e-19)
(0.137907 -0.0264752 -2.85028e-19)
(0.132988 -0.0348546 -7.2935e-19)
(0.128032 -0.0426988 5.75711e-19)
(0.123164 -0.0503415 -1.46984e-19)
(0.118068 -0.0583677 -2.93098e-19)
(0.112075 -0.0678713 -8.69279e-19)
(0.104592 -0.0808379 -2.79058e-19)
(0.0969203 -0.0973259 1.43033e-18)
(0.164148 -0.00686246 -1.6675e-20)
(0.163023 -0.010155 0)
(0.158937 -0.0171857 -5.93082e-20)
(0.154288 -0.0261881 1.25374e-19)
(0.149425 -0.0358202 -3.78731e-19)
(0.144398 -0.0456032 6.82332e-21)
(0.139476 -0.0555186 -5.06156e-19)
(0.134998 -0.0662053 5.08486e-19)
(0.130687 -0.0790494 0)
(0.125447 -0.094869 5.1651e-19)
(0.118326 -0.114365 2.56969e-19)
(0.109829 -0.137727 -7.36486e-19)
(0.181944 -0.00185945 -2.72328e-20)
(0.180743 -0.00384664 -1.66486e-19)
(0.177385 -0.0129327 1.18105e-19)
(0.174021 -0.0246198 2.23143e-19)
(0.170108 -0.0368395 -2.22752e-19)
(0.165533 -0.0492292 8.91894e-19)
(0.160451 -0.061994 -8.94112e-19)
(0.154833 -0.0758437 4.50817e-19)
(0.148279 -0.0929251 0)
(0.139779 -0.114735 6.50207e-19)
(0.129148 -0.140783 -4.20848e-19)
(0.117807 -0.168132 0)
(0.198026 -0.0038357 2.5278e-20)
(0.197507 -0.00611172 5.01409e-20)
(0.195188 -0.0164559 1.00279e-19)
(0.19293 -0.0296862 1.94892e-19)
(0.189563 -0.0435173 -1.95078e-19)
(0.184835 -0.0577925 -1.49753e-20)
(0.17878 -0.072933 -3.8945e-19)
(0.17134 -0.0894936 3.94503e-19)
(0.162438 -0.108887 -3.81789e-19)
(0.151165 -0.132674 1.77468e-19)
(0.137139 -0.159546 -3.33301e-19)
(0.122414 -0.185309 2.57597e-20)
(0.215163 -0.00419904 1.93901e-21)
(0.215719 -0.0084632 -4.14058e-20)
(0.215782 -0.0213789 0)
(0.21539 -0.036109 0)
(0.21289 -0.0508518 0)
(0.207914 -0.0658914 -5.03751e-19)
(0.200155 -0.0819298 3.33655e-19)
(0.189406 -0.0996964 1.50465e-20)
(0.176212 -0.120301 -9.23283e-21)
(0.160894 -0.144161 -5.99346e-19)
(0.143074 -0.169197 2.60147e-20)
(0.124829 -0.191084 2.7637e-19)
(0.23171 -0.00747124 2.04902e-20)
(0.23479 -0.0150275 0)
(0.23796 -0.0299121 1.31396e-19)
(0.239835 -0.0453149 0)
(0.238606 -0.0600698 1.2784e-19)
(0.23356 -0.0746738 0)
(0.224038 -0.0902224 -2.50806e-19)
(0.209652 -0.107478 5.36449e-19)
(0.191295 -0.127066 -1.41899e-20)
(0.170719 -0.149004 4.73687e-19)
(0.148694 -0.170821 2.42232e-19)
(0.126959 -0.188568 2.01384e-19)
(0.247637 -0.0131502 -4.16486e-20)
(0.254854 -0.0250234 -2.53871e-20)
(0.26111 -0.0412268 -1.56177e-20)
(0.265157 -0.0564653 2.15615e-19)
(0.265523 -0.0702478 -1.26601e-19)
(0.261008 -0.0831618 0)
(0.250481 -0.0966873 2.28248e-19)
(0.233293 -0.111967 -2.28295e-20)
(0.209847 -0.12937 -6.3873e-19)
(0.183216 -0.148415 1.59633e-19)
(0.156053 -0.16667 -1.66191e-19)
(0.130429 -0.18084 4.50293e-19)
(0.262426 -0.02179 4.80176e-20)
(0.27459 -0.0376633 5.04655e-20)
(0.282231 -0.0539101 -9.89163e-20)
(0.286499 -0.0676533 -1.85763e-19)
(0.287086 -0.0789587 2.33458e-19)
(0.282959 -0.0892496 -8.3641e-20)
(0.273194 -0.100132 0)
(0.256635 -0.112934 1.3772e-19)
(0.232077 -0.127779 -1.34372e-19)
(0.200724 -0.143903 -1.62997e-19)
(0.167775 -0.159125 -1.24861e-19)
(0.13709 -0.170603 1.89949e-19)
(0.275545 -0.0312458 -2.20287e-20)
(0.290833 -0.0496579 1.56201e-20)
(0.294346 -0.0635415 3.62138e-20)
(0.293806 -0.0736652 0)
(0.290614 -0.0808062 -8.47328e-20)
(0.285275 -0.0876862 5.86973e-20)
(0.277534 -0.0963507 -1.22811e-19)
(0.265531 -0.107863 -3.24902e-20)
(0.246879 -0.121765 -5.78776e-20)
(0.21951 -0.136514 0)
(0.184932 -0.150033 -8.88697e-20)
(0.149528 -0.160112 -1.66594e-19)
(0.281899 -0.0441968 -1.64089e-20)
(0.293041 -0.0574496 -6.01621e-20)
(0.285177 -0.0619171 -2.21229e-20)
(0.27494 -0.0661023 0)
(0.265758 -0.0694953 1.4307e-19)
(0.25882 -0.07396 -1.38625e-19)
(0.253215 -0.0816258 8.82315e-20)
(0.24674 -0.0931344 4.12798e-20)
(0.236951 -0.107866 1.63397e-19)
(0.221006 -0.124021 1.01079e-19)
(0.196573 -0.139003 0)
(0.164772 -0.150216 1.33148e-19)
(0.281529 -0.028643 -9.39407e-21)
(0.263751 -0.0398863 0)
(0.245876 -0.0433568 8.1178e-20)
(0.230974 -0.0452981 -3.73267e-20)
(0.220599 -0.0479341 -1.08261e-19)
(0.214247 -0.0525637 5.83314e-20)
(0.210331 -0.0603972 0)
(0.207051 -0.071871 -6.97378e-20)
(0.202721 -0.0866803 2.54757e-20)
(0.195734 -0.103782 -1.22761e-19)
(0.184089 -0.121192 8.36599e-20)
(0.165808 -0.136307 4.72759e-20)
(0.0676965 -0.0851051 3.24666e-19)
(0.065377 -0.093714 -8.0445e-19)
(0.0608797 -0.104189 -3.1499e-19)
(0.0537589 -0.115007 -6.65129e-19)
(0.0464826 -0.122817 1.35517e-18)
(0.0409092 -0.125502 -8.54011e-19)
(0.0367288 -0.12451 -1.62985e-19)
(0.0301285 -0.121725 0)
(0.0190959 -0.11863 8.31682e-20)
(0.00435718 -0.11803 8.35396e-20)
(-0.0101224 -0.121777 0)
(-0.0159086 -0.126466 0)
(0.0914019 -0.11651 -4.07809e-21)
(0.0882293 -0.136488 -2.64077e-19)
(0.0873481 -0.153296 -2.47142e-19)
(0.0882641 -0.163945 5.07657e-19)
(0.0891561 -0.168025 0)
(0.0873601 -0.167054 2.44862e-19)
(0.081671 -0.163052 1.34456e-19)
(0.0714597 -0.158418 0)
(0.0539737 -0.152732 0)
(0.0299845 -0.146962 -2.22081e-19)
(0.00440848 -0.142222 2.20219e-19)
(-0.00903761 -0.141136 0)
(0.102477 -0.161769 -2.32177e-19)
(0.0978106 -0.181849 2.18703e-19)
(0.096117 -0.194882 0)
(0.0964926 -0.201121 -1.90346e-19)
(0.0979738 -0.202867 0)
(0.0998945 -0.201969 1.97441e-19)
(0.0995293 -0.198966 -1.98033e-19)
(0.0929369 -0.194327 -2.06437e-19)
(0.0758027 -0.187859 0)
(0.0457941 -0.178798 -5.42777e-20)
(0.00951636 -0.166196 -1.30638e-19)
(-0.0116344 -0.155555 6.29571e-20)
(0.108209 -0.191788 0)
(0.102389 -0.207496 0)
(0.100852 -0.214667 0)
(0.102635 -0.216128 1.82935e-20)
(0.106152 -0.215491 3.39995e-19)
(0.109664 -0.215152 -3.38924e-19)
(0.112257 -0.215789 0)
(0.112021 -0.21609 0)
(0.102873 -0.213884 0)
(0.0770071 -0.206662 1.90181e-19)
(0.0330455 -0.19131 1.05015e-19)
(-0.00760923 -0.170553 -5.47779e-20)
(0.110314 -0.204586 -2.73272e-19)
(0.103153 -0.214395 2.64143e-19)
(0.100758 -0.216233 0)
(0.100967 -0.214405 -1.15828e-19)
(0.101746 -0.213019 0)
(0.103174 -0.214421 1.38601e-19)
(0.106469 -0.218759 1.08736e-20)
(0.111286 -0.224708 -1.40364e-19)
(0.113072 -0.229426 0)
(0.100344 -0.228981 -1.57612e-19)
(0.0607168 -0.218124 3.91258e-20)
(0.00278464 -0.192999 0)
(0.110192 -0.205323 2.62406e-19)
(0.101736 -0.210414 -4.77234e-19)
(0.0987939 -0.209253 2.39449e-19)
(0.0983802 -0.206722 -2.28062e-19)
(0.0977413 -0.206294 5.04997e-19)
(0.0961127 -0.209017 -3.93508e-19)
(0.095393 -0.21524 7.72928e-21)
(0.0991152 -0.224693 2.35275e-19)
(0.107243 -0.235151 1.12348e-19)
(0.10959 -0.242613 0)
(0.0851362 -0.241963 3.43436e-20)
(0.0207438 -0.222834 -3.8531e-20)
(0.109524 -0.198898 -3.91265e-19)
(0.0992698 -0.201441 4.19248e-19)
(0.0954322 -0.199675 -1.95408e-19)
(0.0944785 -0.198267 0)
(0.0930112 -0.199684 1.89453e-19)
(0.089683 -0.204082 4.10183e-19)
(0.0854289 -0.21119 -4.10624e-19)
(0.0843327 -0.221407 -1.14804e-19)
(0.0912581 -0.233981 -1.12208e-19)
(0.103207 -0.24615 4.15257e-20)
(0.0997811 -0.256897 5.16226e-20)
(0.0455006 -0.253772 -1.46178e-20)
(0.109699 -0.18859 -1.48403e-19)
(0.0966285 -0.19027 -1.13556e-19)
(0.0907563 -0.189201 1.59169e-19)
(0.0886568 -0.189209 -2.98324e-19)
(0.0865794 -0.192021 2.7907e-19)
(0.0824 -0.1978 -1.71611e-19)
(0.0763955 -0.206383 -6.62405e-20)
(0.0718998 -0.217291 2.48747e-19)
(0.0739105 -0.229862 -8.55341e-20)
(0.0862852 -0.241972 -9.43198e-20)
(0.100117 -0.25911 2.27396e-20)
(0.0699702 -0.276804 -2.15189e-20)
(0.111988 -0.176747 -1.06533e-19)
(0.094937 -0.178262 3.28454e-19)
(0.0858091 -0.178012 1.32969e-20)
(0.081719 -0.179064 0)
(0.0787882 -0.182984 -2.39065e-19)
(0.0739777 -0.190203 -1.07185e-19)
(0.066685 -0.200458 1.1982e-19)
(0.0601524 -0.212475 -7.03686e-20)
(0.0595102 -0.225204 0)
(0.0676374 -0.236456 0)
(0.0862128 -0.252737 0)
(0.0833939 -0.285761 1.05644e-20)
(0.118952 -0.165481 -7.77097e-20)
(0.0964333 -0.167005 0)
(0.0825369 -0.167221 0)
(0.0750814 -0.168876 1.40085e-19)
(0.0703121 -0.173732 0)
(0.0645775 -0.182349 9.21606e-21)
(0.0564077 -0.193979 5.25733e-20)
(0.048356 -0.206732 -1.29294e-19)
(0.0457525 -0.21941 0)
(0.0522281 -0.231243 -2.713e-20)
(0.0665779 -0.248015 1.22839e-20)
(0.0774106 -0.282342 1.52744e-21)
(0.131854 -0.156412 -5.34496e-20)
(0.104024 -0.158575 1.38878e-19)
(0.0840649 -0.159207 9.16078e-20)
(0.0713788 -0.161101 -8.94123e-20)
(0.0630061 -0.166293 5.75093e-20)
(0.05531 -0.175357 0)
(0.046215 -0.187087 1.04122e-19)
(0.0371943 -0.199243 -1.7812e-20)
(0.0324946 -0.211134 0)
(0.0357348 -0.222991 5.36145e-20)
(0.0464594 -0.243584 -2.91175e-20)
(0.0520679 -0.272396 1.39084e-20)
(0.141086 -0.146817 1.56632e-20)
(0.11428 -0.15223 -1.03901e-19)
(0.090603 -0.154643 -8.69282e-20)
(0.072436 -0.15702 -5.14293e-20)
(0.0590383 -0.161714 -3.95639e-20)
(0.0479698 -0.169505 0)
(0.0372773 -0.17927 -2.34334e-20)
(0.0274202 -0.188933 7.84649e-20)
(0.0209823 -0.198151 4.73939e-20)
(0.0195105 -0.208925 -4.39659e-20)
(0.02051 -0.230241 3.86955e-20)
(0.0102307 -0.252614 1.69556e-21)
(-0.0134941 -0.137695 0)
(-0.0199961 -0.130247 -1.77328e-19)
(-0.0298447 -0.127918 9.01376e-20)
(-0.0355346 -0.120512 8.64651e-20)
(-0.0412096 -0.114799 3.39932e-19)
(-0.0467486 -0.10875 -1.68045e-19)
(-0.0517823 -0.102321 1.64946e-19)
(-0.056268 -0.0957089 8.12001e-19)
(-0.0606427 -0.0889402 -1.68701e-19)
(-0.0655569 -0.0819706 -6.35544e-19)
(-0.071365 -0.0751306 7.93665e-19)
(-0.0778486 -0.0701297 -1.58047e-19)
(-0.00238985 -0.15318 -1.79685e-20)
(-0.00267705 -0.150645 -2.62157e-19)
(-0.00920167 -0.147178 3.00062e-19)
(-0.0168177 -0.142951 -1.44714e-19)
(-0.0254249 -0.138345 0)
(-0.0341659 -0.133413 4.37008e-19)
(-0.0424369 -0.128369 -1.15031e-18)
(-0.0502843 -0.123427 5.72146e-19)
(-0.0582866 -0.118369 -2.92847e-19)
(-0.0674995 -0.112487 0)
(-0.0798868 -0.105129 0)
(-0.0958116 -0.0972156 -5.71843e-19)
(-0.00767586 -0.163614 5.01142e-20)
(-0.00998436 -0.162007 6.43864e-20)
(-0.016791 -0.15808 -6.53813e-20)
(-0.0255673 -0.153549 1.29667e-19)
(-0.0351263 -0.148869 -1.23052e-19)
(-0.0450186 -0.143935 8.78553e-19)
(-0.0551077 -0.138937 -7.49258e-19)
(-0.0657807 -0.134281 5.05448e-19)
(-0.0782554 -0.129918 -2.63746e-19)
(-0.0934815 -0.124901 2.65054e-19)
(-0.112214 -0.11811 -4.85948e-21)
(-0.134864 -0.109624 -4.92644e-19)
(-0.00304691 -0.181488 2.89882e-20)
(-0.00458425 -0.180311 -5.76132e-20)
(-0.0130733 -0.176917 -1.07471e-19)
(-0.0242943 -0.173518 0)
(-0.0362899 -0.169653 1.14279e-19)
(-0.048608 -0.165071 2.15364e-19)
(-0.0613202 -0.159877 -1.00651e-21)
(-0.074923 -0.154104 0)
(-0.0913353 -0.147555 -2.32902e-19)
(-0.112276 -0.139292 6.71384e-19)
(-0.137643 -0.128856 -6.2652e-19)
(-0.164859 -0.117467 0)
(-0.00413662 -0.197849 -4.7408e-23)
(-0.00614051 -0.197309 -1.43255e-19)
(-0.016209 -0.194965 1.96005e-19)
(-0.0292237 -0.192698 0)
(-0.0429089 -0.189347 0)
(-0.0570356 -0.184579 0)
(-0.0719849 -0.178425 -2.02102e-19)
(-0.0882388 -0.170884 1.86613e-19)
(-0.107029 -0.161945 3.83228e-19)
(-0.130061 -0.150853 -7.3756e-19)
(-0.156608 -0.137029 5.28913e-19)
(-0.182773 -0.122222 0)
(-0.00463359 -0.215066 6.17945e-20)
(-0.00859893 -0.215718 1.84076e-21)
(-0.0212582 -0.215774 7.88602e-20)
(-0.035816 -0.215442 1.65647e-19)
(-0.0503956 -0.212995 -3.22952e-19)
(-0.0652099 -0.208037 -3.30142e-19)
(-0.0809568 -0.200312 3.33493e-19)
(-0.0983766 -0.189598 -1.59677e-19)
(-0.118505 -0.176357 -3.27209e-19)
(-0.141928 -0.161075 0)
(-0.167047 -0.143385 0)
(-0.189674 -0.124969 0)
(-0.00781871 -0.231708 -5.40868e-20)
(-0.0152012 -0.234933 3.50703e-20)
(-0.0299204 -0.238205 -7.3141e-20)
(-0.0451886 -0.240189 0)
(-0.0597714 -0.239061 1.43776e-19)
(-0.0741359 -0.234118 0)
(-0.0893812 -0.224752 0)
(-0.106327 -0.210568 5.36421e-19)
(-0.125665 -0.192254 -2.59083e-19)
(-0.147454 -0.171602 2.65643e-19)
(-0.169602 -0.149531 -1.17569e-20)
(-0.188183 -0.127509 -4.15216e-19)
(-0.0136192 -0.247658 -1.55906e-20)
(-0.0253507 -0.255064 2.92386e-20)
(-0.0413725 -0.26143 0)
(-0.0564697 -0.265597 0)
(-0.0700955 -0.266089 -1.08377e-19)
(-0.0828006 -0.261744 3.03206e-19)
(-0.0960928 -0.251528 3.99073e-19)
(-0.111101 -0.2347 -4.39712e-19)
(-0.128364 -0.211528 -1.87639e-19)
(-0.147547 -0.184826 2.13654e-19)
(-0.16625 -0.157445 1.27217e-20)
(-0.181196 -0.1314 -3.14061e-19)
(-0.0223756 -0.262431 -3.50915e-20)
(-0.0380711 -0.274759 0)
(-0.0540982 -0.282439 0)
(-0.06768 -0.286772 8.83495e-20)
(-0.078837 -0.287457 -1.97717e-21)
(-0.0889674 -0.283499 -4.26788e-19)
(-0.0996932 -0.27404 -1.48493e-20)
(-0.112381 -0.257951 -1.51378e-19)
(-0.127148 -0.233913 3.29068e-19)
(-0.14345 -0.202781 0)
(-0.159225 -0.169624 1.4722e-19)
(-0.17137 -0.138461 0)
(-0.0318881 -0.275454 3.93598e-20)
(-0.0499908 -0.290831 -8.7763e-20)
(-0.0636601 -0.294317 3.61705e-20)
(-0.073657 -0.293846 0)
(-0.080656 -0.290736 1.86731e-19)
(-0.0873981 -0.285501 -1.87932e-19)
(-0.0959483 -0.277939 1.2245e-19)
(-0.107415 -0.26626 0)
(-0.121404 -0.24811 1.81111e-19)
(-0.136328 -0.221249 9.62438e-20)
(-0.150297 -0.186831 -5.70323e-21)
(-0.160999 -0.15112 -1.67019e-19)
(-0.0447109 -0.281526 -1.4487e-23)
(-0.0577629 -0.292802 8.56484e-20)
(-0.0621137 -0.284897 -2.88149e-20)
(-0.0661428 -0.274777 0)
(-0.0693474 -0.265723 -1.16226e-19)
(-0.0736577 -0.25889 -8.41399e-20)
(-0.081228 -0.253378 -1.54477e-19)
(-0.0927152 -0.24704 2.05188e-20)
(-0.107539 -0.237492 -3.46182e-19)
(-0.123946 -0.221918 -5.86138e-20)
(-0.139287 -0.197852 5.88184e-20)
(-0.151007 -0.166102 0)
(-0.0288228 -0.280984 -1.08675e-23)
(-0.0401929 -0.263379 -2.33996e-20)
(-0.043666 -0.245482 3.65504e-20)
(-0.0453985 -0.230659 0)
(-0.0478037 -0.220433 0)
(-0.0522702 -0.214228 7.23884e-20)
(-0.0600105 -0.210419 6.45429e-20)
(-0.0714713 -0.207228 1.13279e-19)
(-0.0863613 -0.202987 9.91486e-20)
(-0.103658 -0.196116 -3.22912e-20)
(-0.12139 -0.184623 -1.55138e-20)
(-0.1369 -0.166498 0)
(-0.084972 -0.0671756 6.33282e-19)
(-0.0932957 -0.0647654 -6.42564e-19)
(-0.103275 -0.0605553 -1.6283e-19)
(-0.113667 -0.0537779 3.43789e-19)
(-0.121444 -0.046476 -1.00524e-18)
(-0.124389 -0.0405304 -3.33748e-19)
(-0.12376 -0.0361405 0)
(-0.121364 -0.0296004 1.61334e-19)
(-0.118596 -0.0187198 8.31248e-20)
(-0.11823 -0.00420691 0)
(-0.121987 0.01012 1.02344e-21)
(-0.126558 0.0158202 2.0808e-20)
(-0.114383 -0.0912661 5.7579e-19)
(-0.133975 -0.0876882 2.82599e-19)
(-0.150882 -0.0864526 -5.29021e-19)
(-0.161992 -0.0871021 7.74475e-19)
(-0.166621 -0.0878628 -8.84476e-19)
(-0.166093 -0.0860934 1.16045e-18)
(-0.162337 -0.0804455 -5.17215e-19)
(-0.157884 -0.0703874 -4.1123e-19)
(-0.152362 -0.0532282 1.44435e-19)
(-0.146793 -0.0297137 7.27869e-20)
(-0.142261 -0.00457746 -3.42531e-20)
(-0.141264 0.00874538 -6.98251e-23)
(-0.158696 -0.101977 -2.32673e-19)
(-0.179178 -0.0969197 4.48637e-19)
(-0.192944 -0.0949063 4.05734e-19)
(-0.199819 -0.0951151 -2.1357e-19)
(-0.201951 -0.096512 0)
(-0.201336 -0.0983677 1.94674e-19)
(-0.198447 -0.0979923 4.00733e-19)
(-0.193794 -0.0913871 -2.07616e-19)
(-0.187366 -0.0744363 2.2154e-19)
(-0.178455 -0.0448795 -6.22835e-20)
(-0.166071 -0.00925938 6.62507e-20)
(-0.155695 0.0114905 -1.52353e-20)
(-0.189133 -0.107583 -1.90319e-19)
(-0.205939 -0.1014 5.19351e-19)
(-0.21413 -0.0996372 -3.3683e-19)
(-0.216177 -0.10143 -1.75672e-19)
(-0.215679 -0.105109 0)
(-0.215171 -0.108719 -5.23848e-19)
(-0.215596 -0.111153 1.56415e-19)
(-0.215736 -0.110735 -1.59756e-19)
(-0.213437 -0.101485 -9.2316e-20)
(-0.206253 -0.0758006 9.10346e-20)
(-0.191065 -0.0324115 5.15212e-20)
(-0.170605 0.00754039 4.05144e-20)
(-0.20316 -0.109764 2.9153e-19)
(-0.214242 -0.102205 -2.87905e-19)
(-0.216922 -0.0996555 2.80411e-19)
(-0.215329 -0.100015 -2.87555e-19)
(-0.213763 -0.101056 0)
(-0.214818 -0.102609 0)
(-0.218814 -0.105864 -1.3555e-19)
(-0.224476 -0.110408 2.85146e-19)
(-0.229001 -0.111863 0)
(-0.228494 -0.0989946 -8.03998e-20)
(-0.217728 -0.059689 -8.52008e-20)
(-0.192881 -0.00262209 -2.45016e-20)
(-0.205131 -0.109842 -2.41255e-19)
(-0.211301 -0.100899 6.98775e-19)
(-0.210588 -0.097797 -2.64012e-21)
(-0.207897 -0.0975902 -2.46364e-19)
(-0.207068 -0.0973017 0)
(-0.209426 -0.0959313 0)
(-0.215368 -0.0952212 1.34964e-19)
(-0.224573 -0.0986743 -1.32037e-19)
(-0.234833 -0.106362 0)
(-0.242163 -0.108316 0)
(-0.241458 -0.0838214 1.40264e-21)
(-0.222488 -0.0201882 7.58256e-20)
(-0.19958 -0.109469 1.99614e-19)
(-0.202875 -0.0986395 -2.25895e-19)
(-0.201203 -0.0946111 3.90196e-19)
(-0.199431 -0.0938786 -3.84324e-19)
(-0.200438 -0.0927878 -1.89932e-19)
(-0.204537 -0.0897631 -2.14735e-19)
(-0.211438 -0.0855932 2.13378e-19)
(-0.221495 -0.0842767 9.78694e-20)
(-0.233937 -0.0907659 0)
(-0.24599 -0.102222 9.43291e-20)
(-0.256551 -0.0983807 4.9351e-20)
(-0.253309 -0.0444467 -3.32231e-20)
(-0.189769 -0.110003 2.94381e-19)
(-0.191903 -0.0963016 -4.32396e-19)
(-0.190741 -0.0901663 0)
(-0.190362 -0.0882142 3.13896e-19)
(-0.192815 -0.0864744 1.69726e-19)
(-0.198342 -0.082609 -1.58298e-19)
(-0.206762 -0.0767452 8.31868e-20)
(-0.217591 -0.0720945 -9.04992e-20)
(-0.230117 -0.0737198 -5.70291e-21)
(-0.242195 -0.085667 -1.51515e-20)
(-0.259137 -0.098945 -7.60442e-21)
(-0.27651 -0.0685837 1.12886e-20)
(-0.178123 -0.112672 2.9528e-19)
(-0.179901 -0.0949663 -9.23248e-20)
(-0.179492 -0.0854914 2.00663e-19)
(-0.180184 -0.0814345 1.18832e-20)
(-0.183777 -0.0787735 1.24869e-21)
(-0.190776 -0.0742687 1.07437e-19)
(-0.200926 -0.067135 -1.81682e-19)
(-0.212942 -0.0604828 1.28067e-19)
(-0.225681 -0.0594889 -1.40991e-19)
(-0.236926 -0.0672368 -7.70464e-20)
(-0.253037 -0.0854417 -3.9113e-20)
(-0.285764 -0.0820377 -1.05699e-20)
(-0.166847 -0.119949 1.07847e-19)
(-0.168551 -0.0968175 -7.45872e-20)
(-0.168621 -0.0825312 -8.71562e-20)
(-0.169964 -0.075002 -5.02283e-20)
(-0.17453 -0.0704013 7.31368e-20)
(-0.182977 -0.064917 -9.52221e-20)
(-0.194573 -0.0568986 0)
(-0.20738 -0.0487687 4.74088e-20)
(-0.22007 -0.0458853 -4.90954e-20)
(-0.231856 -0.0520361 -2.7149e-20)
(-0.248357 -0.0660525 1.67472e-20)
(-0.282515 -0.0763735 -1.38039e-20)
(-0.15764 -0.132899 -1.78607e-19)
(-0.159986 -0.104643 -8.8408e-20)
(-0.160543 -0.0843537 5.19786e-20)
(-0.162218 -0.0715484 1.86267e-19)
(-0.167193 -0.063246 -2.17772e-20)
(-0.176141 -0.0557083 1.15996e-19)
(-0.187874 -0.0467261 -6.26908e-20)
(-0.200094 -0.0376609 2.6027e-20)
(-0.211997 -0.0327599 3.5192e-20)
(-0.223717 -0.0357423 1.92555e-20)
(-0.243947 -0.04618 -1.34483e-20)
(-0.272615 -0.0513877 -7.70499e-21)
(-0.147808 -0.141774 -4.69603e-20)
(-0.153457 -0.114826 3.13149e-20)
(-0.155907 -0.0910023 -5.68533e-20)
(-0.158196 -0.0727788 3.95256e-20)
(-0.162775 -0.0594244 -1.34554e-19)
(-0.170496 -0.0484494 -4.97233e-20)
(-0.180247 -0.0378264 4.02948e-20)
(-0.189915 -0.0279444 -5.47629e-20)
(-0.199071 -0.0213678 0)
(-0.209703 -0.0196763 0)
(-0.23071 -0.0204267 -9.29174e-21)
(-0.252874 -0.00974563 1.32673e-20)
(-0.132341 0.0123657 1.18986e-19)
(-0.129573 0.0208205 -1.32593e-19)
(-0.125119 0.0278505 -8.43075e-20)
(-0.119636 0.0344928 8.57233e-20)
(-0.113785 0.0406863 0)
(-0.107781 0.0463391 -1.6652e-19)
(-0.101604 0.0513907 0)
(-0.0951898 0.0559178 0)
(-0.0884872 0.0603693 1.52545e-19)
(-0.0815484 0.0654065 1.58516e-19)
(-0.0749317 0.0713327 1.58077e-19)
(-0.070337 0.0778719 1.57597e-19)
(-0.151102 -0.00177802 -1.92715e-20)
(-0.150353 0.00114546 -1.49808e-19)
(-0.146771 0.00867282 2.25083e-19)
(-0.142531 0.0175796 0)
(-0.137884 0.0264716 -2.91592e-19)
(-0.132952 0.0348607 -2.89361e-19)
(-0.12799 0.0427126 1.4304e-18)
(-0.123128 0.0503541 -5.71182e-19)
(-0.118057 0.05837 2.78281e-19)
(-0.112093 0.0678551 -2.93092e-19)
(-0.104622 0.0808005 2.92882e-19)
(-0.0969598 0.0972799 -5.47383e-21)
(-0.164144 0.00691171 0)
(-0.163036 0.0101591 6.28936e-20)
(-0.158941 0.017151 0)
(-0.154267 0.0261404 -1.23846e-19)
(-0.149379 0.0357786 1.23307e-19)
(-0.144324 0.0455797 0)
(-0.139374 0.0555173 -2.5742e-19)
(-0.134881 0.0662147 0)
(-0.13059 0.0790497 2.47941e-19)
(-0.125394 0.0948432 -2.64566e-19)
(-0.11831 0.114319 2.61521e-19)
(-0.109839 0.137714 -2.46596e-19)
(-0.181943 0.00192608 5.62381e-20)
(-0.180766 0.00384305 -1.13404e-19)
(-0.177391 0.0128771 0)
(-0.174005 0.0245498 4.44528e-19)
(-0.170075 0.0367772 -1.1415e-19)
(-0.165479 0.0491837 -6.67332e-19)