/*--------------------------------*- C++ -*----------------------------------*\
| =========                 |                                                 |
| \\      /  F ield         | OpenFOAM: The Open Source CFD Toolbox           |
|  \\    /   O peration     | Version:  v1806                                 |
|   \\  /    A nd           | Web:      www.OpenFOAM.com                      |
|    \\/     M anipulation  |                                                 |
\*---------------------------------------------------------------------------*/
FoamFile
{
    version     2.0;
    format      ascii;
    class       volScalarField;
    location    "1";
    object      p;
}
// * * * * * * * * * * * * * * * * * * * * * * * * * * * * * * * * * * * * * //

dimensions      [0 2 -2 0 0 0 0];


internalField   nonuniform List<scalar> 
768
(
-0.000717969
-0.00390938
-0.00655141
-0.00888837
-0.0108731
-0.0121591
-0.0122863
-0.0114518
-0.00992697
-0.00791991
-0.00543903
-0.00263046
-0.000771014
-0.0033978
-0.00577862
-0.00787024
-0.00957121
-0.010651
-0.0108551
-0.0102641
-0.0090223
-0.00730792
-0.00510993
-0.00271948
-0.000824812
-0.00304827
-0.00516461
-0.00700561
-0.00848263
-0.00942042
-0.00965984
-0.00923701
-0.00824365
-0.00684017
-0.00492218
-0.00286872
-0.000865441
-0.00279134
-0.00464121
-0.00626906
-0.00756642
-0.00839961
-0.00866369
-0.00837701
-0.00760996
-0.0064885
-0.00498821
-0.00331508
-0.000234675
0.00143666
0.00327264
0.00431569
0.00483945
0.0051239
0.00527767
0.0053302
0.00521545
0.00480359
0.00384093
0.00215802
-0.000404789
0.00130038
0.00296119
0.00397338
0.00453762
0.00485214
0.00497967
0.00495371
0.00472491
0.00418915
0.00318141
0.00156703
-0.000298727
0.00139667
0.00281309
0.00371682
0.00425211
0.00453699
0.00464068
0.00456066
0.0042592
0.00365799
0.00265009
0.00114889
0.000297527
0.00182339
0.00284596
0.00356526
0.00402293
0.00425819
0.00431208
0.00417763
0.00382491
0.00319435
0.0022143
0.000837535
-0.00076367
-0.00396994
-0.00663514
-0.00898889
-0.0109767
-0.0122528
-0.0123749
-0.0115417
-0.0100254
-0.00803278
-0.00557361
-0.00279158
-0.000813362
-0.00345444
-0.00585343
-0.00796173
-0.00966657
-0.0107436
-0.0109454
-0.0103582
-0.00912428
-0.00742208
-0.00524273
-0.00287321
-0.000869289
-0.00310145
-0.0052335
-0.0070893
-0.00857207
-0.00951126
-0.00975174
-0.0093329
-0.0083465
-0.00695236
-0.00505217
-0.00301348
-0.000912196
-0.00284326
-0.0047067
-0.00634727
-0.00765131
-0.00848815
-0.00875503
-0.00847279
-0.00771219
-0.00659932
-0.00511168
-0.00345007
-0.000219828
0.00143468
0.00326252
0.00429985
0.00482172
0.00510864
0.0052668
0.00532566
0.00521718
0.00481094
0.00385402
0.00218501
-0.00039254
0.00129875
0.00295268
0.0039606
0.00452368
0.00484113
0.00497243
0.00495196
0.0047294
0.00420076
0.00320132
0.00159753
-0.000287795
0.00139503
0.00280581
0.00370645
0.0042411
0.00452814
0.00463626
0.00456145
0.00426577
0.00367129
0.00267229
0.00118246
0.000306794
0.00182154
0.00283981
0.00355689
0.00401438
0.00425146
0.00430972
0.00418019
0.003833
0.00320862
0.00223671
0.000871579
-0.000900839
-0.00258163
-0.00421152
-0.00565646
-0.00680955
-0.00756505
-0.00785133
-0.00767808
-0.0071036
-0.00623374
-0.00515255
-0.00407038
-0.000926734
-0.00241429
-0.00386519
-0.00515943
-0.00619829
-0.00689598
-0.0071995
-0.00711612
-0.00669273
-0.00602192
-0.00520981
-0.00443437
-0.000945898
-0.00228469
-0.00359107
-0.00476303
-0.00571176
-0.00636525
-0.00668154
-0.00666861
-0.00636456
-0.00585333
-0.00524313
-0.00468972
-0.000961526
-0.00218394
-0.00337517
-0.00444904
-0.00532659
-0.00594624
-0.00627389
-0.00631633
-0.00610827
-0.00572504
-0.00526634
-0.00486707
-0.000974318
-0.00210427
-0.00320489
-0.00420058
-0.00502193
-0.00561574
-0.00595395
-0.00604046
-0.00590944
-0.00562778
-0.00528358
-0.00499253
-0.000982991
-0.00204227
-0.00307063
-0.00400426
-0.00478157
-0.00535551
-0.00570171
-0.00582455
-0.00575499
-0.00555287
-0.00529535
-0.00508123
-0.000988163
-0.00199427
-0.00296529
-0.00385055
-0.00459362
-0.00515248
-0.00550492
-0.00565704
-0.00563576
-0.00549512
-0.00530294
-0.00514389
-0.000991558
-0.00195633
-0.00288384
-0.0037322
-0.00444919
-0.00499702
-0.00535743
-0.00552951
-0.00554524
-0.00545131
-0.0053079
-0.00518826
-0.000993959
-0.00192623
-0.00282242
-0.00364361
-0.00434142
-0.00488127
-0.00524511
-0.00543506
-0.00547866
-0.00541934
-0.0053116
-0.00521985
-0.000995572
-0.00190257
-0.00277814
-0.00358043
-0.00426496
-0.00479973
-0.005166
-0.00536895
-0.00543258
-0.00539786
-0.00531522
-0.00524255
-0.000995015
-0.00188567
-0.00274861
-0.00353925
-0.00421559
-0.0047481
-0.00511581
-0.00532753
-0.00540442
-0.00538587
-0.00531961
-0.00525929
-0.000992854
-0.00187572
-0.00273236
-0.00351714
-0.00418873
-0.0047143
-0.00509032
-0.00530746
-0.00539158
-0.0053816
-0.00532405
-0.00527177
0.00158483
0.00235542
0.00297974
0.00349247
0.0038444
0.00401556
0.00401716
0.00383602
0.00344603
0.00280372
0.00186231
0.000599808
0.00233101
0.00271224
0.00310113
0.00345064
0.00370025
0.00380597
0.0037577
0.00353819
0.00312299
0.0024798
0.00157929
0.000415694
0.00274971
0.00293833
0.0031805
0.00341499
0.00357905
0.00362556
0.00353331
0.00328233
0.00284999
0.00221204
0.00135074
0.000270254
0.00297717
0.00307496
0.00322598
0.00337879
0.00347497
0.00347137
0.003342
0.00306575
0.00262187
0.001992
0.00116621
0.000154504
0.00310545
0.0031563
0.00324827
0.003342
0.0033855
0.00334103
0.00318125
0.00288507
0.00243361
0.00181278
0.00101806
6.28058e-05
0.00317921
0.00320369
0.0032559
0.00330631
0.00330947
0.00323251
0.00304847
0.00273684
0.00228052
0.0016686
0.00090029
-8.9689e-06
0.00322079
0.00322984
0.00325481
0.00327345
0.00324621
0.0031441
0.00294117
0.0026178
0.00215847
0.00155464
0.000808124
-6.4356e-05
0.00324294
0.00324267
0.00324905
0.00324478
0.0031952
0.00307424
0.00285707
0.00252505
0.00206394
0.00146698
0.000737814
-0.000106136
0.00325296
0.00324718
0.00324131
0.00322117
0.00315593
0.00302158
0.00279415
0.00245602
0.00199394
0.00140246
0.000686448
-0.000136362
0.00325508
0.00324641
0.00323322
0.00320308
0.00312779
0.00298482
0.0027506
0.00240852
0.00194599
0.00135851
0.000651782
-0.000156431
0.0032514
0.00324216
0.00322576
0.00319064
0.00311013
0.00296169
0.00272471
0.00238057
0.00191792
0.001333
0.000632063
-0.000167249
0.00324326
0.00323666
0.00322017
0.00318386
0.00310182
0.00295199
0.00271358
0.00236872
0.00190614
0.00132248
0.000624406
-0.00017088
-0.000945042
-0.00263343
-0.00427471
-0.00573047
-0.00689063
-0.00765099
-0.00794132
-0.00777293
-0.00720452
-0.00634213
-0.00526983
-0.00419422
-0.000968562
-0.00246545
-0.00392634
-0.00523031
-0.00627642
-0.00697968
-0.00728805
-0.00720976
-0.00679212
-0.00612773
-0.00532223
-0.00455146
-0.000987053
-0.0023351
-0.0036508
-0.00483175
-0.00578774
-0.00644718
-0.00676877
-0.00676099
-0.00646236
-0.00595671
-0.00535169
-0.00480179
-0.00100255
-0.00223383
-0.00343407
-0.00451632
-0.005401
-0.0060268
-0.00635999
-0.00640753
-0.00620458
-0.0058263
-0.00537186
-0.00497532
-0.00101487
-0.00215432
-0.00326325
-0.00426681
-0.00509517
-0.0056952
-0.00603908
-0.00613062
-0.00600445
-0.00572726
-0.0053867
-0.00509787
-0.00102271
-0.00209296
-0.00312865
-0.00406975
-0.00485393
-0.00543408
-0.00578608
-0.00591379
-0.00584888
-0.00565089
-0.00539658
-0.00518433
-0.00102778
-0.0020449
-0.00302305
-0.00391553
-0.00466529
-0.00523029
-0.00558873
-0.00574548
-0.00572871
-0.00559196
-0.00540269
-0.00524525
-0.00103109
-0.0020069
-0.00294142
-0.00379676
-0.00452035
-0.00507417
-0.00543955
-0.00561721
-0.00563742
-0.0055472
-0.00540649
-0.00528832
-0.00103361
-0.00197665
-0.00287977
-0.00370781
-0.00441219
-0.004958
-0.00532708
-0.00552225
-0.00557026
-0.00551452
-0.00540934
-0.00531895
-0.00103554
-0.00195279
-0.00283518
-0.00364437
-0.00433545
-0.00487617
-0.00524776
-0.00545578
-0.00552375
-0.00549253
-0.00541237
-0.00534098
-0.00103539
-0.00193551
-0.00280549
-0.00360299
-0.00428587
-0.00482435
-0.00519741
-0.00541413
-0.00549532
-0.00548022
-0.00541638
-0.00535731
-0.00103348
-0.00192534
-0.00278914
-0.00358079
-0.00425889
-0.00479033
-0.00517183
-0.00539394
-0.00548235
-0.00547579
-0.00542065
-0.00536961
0.00158944
0.0023535
0.00297481
0.00348588
0.00383801
0.00401112
0.0040167
0.00384012
0.0034555
0.00281936
0.00188537
0.000632757
0.0023331
0.00271044
0.00309723
0.00344562
0.00369572
0.00380352
0.00375896
0.00354383
0.00313381
0.00249674
0.0016034
0.000448269
0.00275024
0.00293655
0.00317734
0.00341125
0.00357611
0.00362478
0.00353604
0.00328939
0.00286214
0.0022301
0.00137569
0.000303043
0.00297679
0.00307322
0.00322343
0.00337612
0.00347335
0.00347198
0.00334599
0.00307401
0.00263518
0.00201102
0.00119178
0.000187468
0.00310457
0.00315464
0.00324623
0.00334022
0.00338497
0.0033428
0.00318633
0.00289433
0.00244782
0.00183257
0.00104412
9.58116e-05
0.0031781
0.00320218
0.00325432
0.00330527
0.00330983
0.00323525
0.00305447
0.00274692
0.00229543
0.00168898
0.000926735
2.40373e-05
0.00321959
0.00322849
0.00325363
0.00327302
0.0032473
0.00314762
0.00294791
0.00262855
0.00217394
0.00157547
0.000834876
-3.12791e-05
0.00324175
0.00324148
0.0032482
0.00324482
0.00319687
0.0030784
0.00286439
0.00253632
0.00207986
0.00148818
0.00076482
-7.29535e-05
0.00325182
0.00324614
0.00324072
0.00322158
0.00315801
0.00302625
0.0028019
0.00246769
0.00201021
0.00142394
0.000713659
-0.000103058
0.00325399
0.00324551
0.00323284
0.00320375
0.00313017
0.00298991
0.00275863
0.00242045
0.00196249
0.00138018
0.000679146
-0.000123008
0.00325037
0.00324136
0.00322552
0.00319147
0.00311263
0.0029663
0.00273284
0.00239265
0.00193456
0.00135479
0.000659536
-0.000133727
0.00324228
0.00323591
0.00322001
0.00318478
0.0031044
0.00295677
0.00272177
0.00238085
0.00192284
0.00134432
0.000651952
-0.000137306
)
;

boundaryField
{
    rotor
    {
        type            zeroGradient;
    }
    stator
    {
        type            zeroGradient;
    }
    AMI1
    {
        type            cyclicAMI;
        value           nonuniform 0();
    }
    AMI2
    {
        type            cyclicAMI;
        value           nonuniform List<scalar> 
48
(
-0.00081425
-0.00441782
-0.00714866
-0.0095769
-0.0117323
-0.0130578
-0.0131091
-0.0120991
-0.0103867
-0.00823148
-0.00559537
-0.00244775
4.77376e-05
0.00148081
0.00342974
0.00454823
0.00501873
0.00526644
0.0054354
0.00553668
0.00549891
0.00517734
0.00425517
0.00251851
-0.00085991
-0.00447585
-0.00723442
-0.0096803
-0.0118364
-0.0131506
-0.0131946
-0.0121855
-0.0104821
-0.00834204
-0.00572909
-0.00260677
6.54161e-05
0.00147793
0.00341826
0.00453128
0.00499981
0.00525034
0.0054244
0.00553253
0.00550066
0.005183
0.00426333
0.00254313
)
;
    }
    front
    {
        type            empty;
    }
    back
    {
        type            empty;
    }
    procBoundary1to0
    {
        type            processor;
        value           nonuniform List<scalar> 8(2.19704e-07 -0.000207014 -0.000119512 0.000468021 -0.00282298 -0.0029024 -0.00304342 -0.00348317);
    }
}


// ************************************************************************* //
