/*--------------------------------*- C++ -*----------------------------------*\
| =========                 |                                                 |
| \\      /  F ield         | OpenFOAM: The Open Source CFD Toolbox           |
|  \\    /   O peration     | Version:  v1806                                 |
|   \\  /    A nd           | Web:      www.OpenFOAM.com                      |
|    \\/     M anipulation  |                                                 |
\*---------------------------------------------------------------------------*/
FoamFile
{
    version     2.0;
    format      ascii;
    class       surfaceScalarField;
    location    "1";
    object      phi;
}
// * * * * * * * * * * * * * * * * * * * * * * * * * * * * * * * * * * * * * //

dimensions      [0 3 -1 0 0 0 0];
oriented        oriented;


internalField   nonuniform List<scalar> 
1460
(
-5.6767e-07
1.62211e-06
8.15586e-07
-3.45315e-07
1.53241e-06
-1.57426e-07
1.35066e-06
-2.35246e-08
1.0883e-06
2.27191e-08
7.48122e-07
-8.46594e-09
3.41758e-07
-1.00995e-07
-7.70478e-08
-2.20227e-07
-4.92767e-07
-3.35293e-07
-9.17856e-07
-4.52247e-07
-1.33758e-06
-5.1388e-07
-1.81927e-06
-2.31351e-06
-3.68927e-07
1.4341e-06
5.56934e-07
-1.84724e-07
1.3482e-06
-1.86542e-08
1.18459e-06
1.0984e-07
9.59806e-07
1.91648e-07
6.66314e-07
2.08788e-07
3.24618e-07
1.74453e-07
-4.27132e-08
1.03249e-07
-4.21563e-07
-5.07179e-09
-8.09535e-07
-1.6837e-07
-1.17428e-06
-3.67425e-07
-1.62021e-06
-2.17312e-06
-1.49943e-07
1.26804e-06
3.16007e-07
1.29654e-08
1.1853e-06
1.62791e-07
1.03476e-06
2.90337e-07
8.32259e-07
3.79878e-07
5.76774e-07
4.18784e-07
2.85712e-07
4.02639e-07
-2.6568e-08
3.27243e-07
-3.46167e-07
1.81906e-07
-6.64198e-07
-1.59846e-08
-9.7639e-07
-2.82621e-07
-1.35357e-06
-1.80916e-06
9.54338e-09
1.50348e-07
1.10814e-06
1.61763e-07
1.03308e-06
2.99201e-07
8.97322e-07
4.15002e-07
7.16458e-07
4.97515e-07
4.94261e-07
5.34599e-07
2.48629e-07
5.13764e-07
-5.73262e-09
4.26792e-07
-2.59195e-07
2.76028e-07
-5.13434e-07
1.08245e-07
-8.08607e-07
-1.0635e-07
-1.13898e-06
-1.30611e-06
-2.42999e-07
-2.29761e-06
-4.99962e-07
-1.45442e-06
-8.46552e-07
-1.02998e-06
-1.05981e-06
-7.80074e-07
-1.17361e-06
-4.36079e-07
-1.22248e-06
-4.17502e-08
-1.23021e-06
3.43799e-07
-1.22042e-06
6.88704e-07
-1.19807e-06
9.8341e-07
-1.14095e-06
1.23128e-06
-1.02227e-06
1.43584e-06
1.59238e-06
-8.10028e-07
-3.54075e-07
-2.45166e-06
-4.41162e-07
-1.36733e-06
-7.13164e-07
-7.57975e-07
-9.16403e-07
-5.76835e-07
-1.01839e-06
-3.34096e-07
-1.05155e-06
-8.58161e-09
-1.03731e-06
3.29558e-07
-9.94905e-07
6.46296e-07
-9.32094e-07
9.20599e-07
-8.46441e-07
1.14562e-06
-7.27489e-07
1.31688e-06
1.4261e-06
-5.61206e-07
-5.55879e-07
-2.5428e-06
-5.56757e-07
-1.36646e-06
-7.01878e-07
-6.12855e-07
-8.2822e-07
-4.50492e-07
-8.94301e-07
-2.68016e-07
-9.0713e-07
4.24765e-09
-8.75402e-07
2.97829e-07
-8.09765e-07
5.80659e-07
-7.19835e-07
8.30669e-07
-6.0931e-07
1.0351e-06
-4.76968e-07
1.18454e-06
1.26961e-06
-3.20478e-07
-6.2436e-07
-2.52818e-06
-6.8245e-07
-1.30837e-06
-7.18048e-07
-5.77256e-07
-7.63676e-07
-4.04864e-07
-7.96341e-07
-2.35351e-07
-7.95098e-07
3.00505e-09
-7.552e-07
2.57931e-07
-6.79907e-07
5.05366e-07
-5.76608e-07
7.2737e-07
-4.51752e-07
9.10242e-07
-3.09488e-07
1.04228e-06
-1.53399e-07
1.11352e-06
-5.60076e-07
1.63522e-06
-3.36124e-07
1.54774e-06
-1.49963e-07
1.36621e-06
-1.88384e-08
1.09824e-06
2.50814e-08
7.52105e-07
-8.154e-09
3.42458e-07
-1.02163e-07
-7.75033e-08
-2.22052e-07
-4.936e-07
-3.36529e-07
-9.19414e-07
-4.52017e-07
-1.33965e-06
-5.12057e-07
-1.82116e-06
-2.31625e-06
-3.99078e-07
-3.69133e-07
1.44315e-06
-1.82527e-07
1.36114e-06
-1.63986e-08
1.20008e-06
1.12067e-07
9.69772e-07
1.92857e-07
6.71314e-07
2.08803e-07
3.26513e-07
1.7375e-07
-4.2451e-08
1.02564e-07
-4.22414e-07
-5.00895e-09
-8.11841e-07
-1.67153e-07
-1.17751e-06
-3.65149e-07
-1.62317e-06
-2.17599e-06
-5.05411e-07
-1.51529e-07
1.2742e-06
1.23139e-08
1.19729e-06
1.6306e-07
1.04934e-06
2.91594e-07
8.41237e-07
3.81073e-07
5.81835e-07
4.19665e-07
2.87922e-07
4.0349e-07
-2.62766e-08
3.28434e-07
-3.47358e-07
1.83502e-07
-6.66909e-07
-1.42637e-08
-9.79741e-07
-2.80308e-07
-1.35712e-06
-1.81276e-06
-6.43539e-07
6.97662e-09
1.11383e-06
1.60375e-07
1.04389e-06
3.00181e-07
9.09531e-07
4.17165e-07
7.24253e-07
5.00031e-07
4.98968e-07
5.37116e-07
2.50837e-07
5.16274e-07
-5.43485e-09
4.29137e-07
-2.60221e-07
2.78103e-07
-5.15875e-07
1.10112e-07
-8.1175e-07
-1.03999e-07
-1.14301e-06
-6.06061e-07
-1.3107e-06
-2.38232e-07
-2.29709e-06
-4.94693e-07
-1.4492e-06
-8.42065e-07
-1.02301e-06
-1.05551e-06
-7.74603e-07
-1.16951e-06
-4.31778e-07
-1.21894e-06
-3.81759e-08
-1.22729e-06
3.46603e-07
-1.21866e-06
6.91476e-07
-1.1981e-06
9.86449e-07
-1.14321e-06
1.23397e-06
-1.02646e-06
1.43595e-06
1.58529e-06
-3.50355e-07
-2.45214e-06
-4.36646e-07
-1.36291e-06
-7.0904e-07
-7.50619e-07
-9.12539e-07
-5.71104e-07
-1.01464e-06
-3.29681e-07
-1.04794e-06
-4.86814e-09
-1.03426e-06
3.32921e-07
-9.92506e-07
6.4972e-07
-9.29933e-07
9.23876e-07
-8.43553e-07
1.14759e-06
-7.23023e-07
1.31542e-06
1.4192e-06
-5.52993e-07
-2.54269e-06
-5.534e-07
-1.3625e-06
-6.98448e-07
-6.05572e-07
-8.24818e-07
-4.44733e-07
-8.90872e-07
-2.63627e-07
-9.03682e-07
7.94181e-09
-8.71868e-07
3.01107e-07
-8.06213e-07
5.84065e-07
-7.15864e-07
8.33526e-07
-6.04224e-07
1.03596e-06
-4.70949e-07
1.18215e-06
1.26425e-06
-6.22659e-07
-2.52609e-06
-6.80718e-07
-1.30444e-06
-7.15668e-07
-5.70621e-07
-7.60859e-07
-3.99543e-07
-7.93256e-07
-2.31231e-07
-7.91778e-07
6.46416e-09
-7.51622e-07
2.60951e-07
-6.75967e-07
5.0841e-07
-5.7211e-07
7.29669e-07
-4.46898e-07
9.10743e-07
-3.05057e-07
1.04031e-06
1.10955e-06
8.26362e-08
9.56347e-07
6.916e-08
2.23191e-07
8.92522e-07
3.46402e-07
7.74111e-07
4.47584e-07
6.15276e-07
5.17994e-07
4.23851e-07
5.50064e-07
2.16559e-07
5.35056e-07
9.27502e-09
4.6843e-07
-1.92569e-07
3.60461e-07
-4.05465e-07
2.46324e-07
-6.9447e-07
1.47709e-07
-1.04036e-06
-1.1584e-06
9.14958e-08
8.18049e-07
4.68031e-08
2.20523e-07
7.63494e-07
3.30742e-07
6.63893e-07
4.1865e-07
5.27368e-07
4.79798e-07
3.62703e-07
5.10706e-07
1.85651e-07
5.10155e-07
9.82669e-09
4.77375e-07
-1.5979e-07
4.15725e-07
-3.43814e-07
3.20029e-07
-5.98774e-07
1.69797e-07
-8.90132e-07
-9.88603e-07
7.58094e-08
6.94406e-07
4.7833e-08
1.9026e-07
6.49043e-07
2.88958e-07
5.65195e-07
3.67239e-07
4.49087e-07
4.21406e-07
3.08536e-07
4.51047e-07
1.5601e-07
4.58181e-07
2.69337e-09
4.44738e-07
-1.46347e-07
4.05704e-07
-3.0478e-07
3.19041e-07
-5.12111e-07
1.67565e-07
-7.38656e-07
-8.21037e-07
5.80961e-08
5.85419e-07
5.08905e-08
1.58951e-07
5.48189e-07
2.475e-07
4.76646e-07
3.17834e-07
3.78753e-07
3.66386e-07
2.59984e-07
3.93042e-07
1.29354e-07
3.9963e-07
-3.89494e-09
3.88562e-07
-1.35278e-07
3.54781e-07
-2.70999e-07
2.77669e-07
-4.34999e-07
1.4602e-07
-6.07007e-07
-6.75018e-07
4.48258e-08
4.89311e-07
5.12828e-08
1.3648e-07
4.56535e-07
2.15759e-07
3.97366e-07
2.78911e-07
3.15601e-07
3.23132e-07
2.15763e-07
3.46874e-07
1.05612e-07
3.51139e-07
-8.15929e-09
3.37484e-07
-1.21623e-07
3.03074e-07
-2.36589e-07
2.34999e-07
-3.66925e-07
1.24449e-07
-4.96456e-07
-5.50569e-07
3.68544e-08
4.02115e-07
5.03414e-08
1.19575e-07
3.73814e-07
1.91224e-07
3.25717e-07
2.49541e-07
2.57285e-07
2.90079e-07
1.75225e-07
3.11711e-07
8.398e-08
3.14498e-07
-1.0947e-08
2.99202e-07
-1.06327e-07
2.64258e-07
-2.01645e-07
2.02236e-07
-3.04903e-07
1.07186e-07
-4.01406e-07
-4.43383e-07
3.10803e-08
3.21796e-07
4.92391e-08
1.06044e-07
2.9885e-07
1.72583e-07
2.59178e-07
2.26158e-07
2.03709e-07
2.63719e-07
1.37664e-07
2.83977e-07
6.37226e-08
2.86141e-07
-1.3111e-08
2.70392e-07
-9.05776e-08
2.3588e-07
-1.67134e-07
1.78122e-07
-2.47145e-07
9.42951e-08
-3.17579e-07
-3.49088e-07
2.66557e-08
2.47318e-07
4.78221e-08
9.63359e-08
2.2917e-07
1.58348e-07
1.97166e-07
2.08021e-07
1.54036e-07
2.43406e-07
1.0228e-07
2.62229e-07
4.48995e-08
2.63964e-07
-1.48464e-08
2.48582e-07
-7.51951e-08
2.14961e-07
-1.33513e-07
1.60654e-07
-1.92838e-07
8.5082e-08
-2.42007e-07
-2.64006e-07
2.486e-08
1.77303e-07
4.51549e-08
9.03385e-08
1.63692e-07
1.48711e-07
1.38794e-07
1.9544e-07
1.07307e-07
2.28583e-07
6.91375e-08
2.46411e-07
2.70711e-08
2.47894e-07
-1.63291e-08
2.32598e-07
-5.98987e-08
1.99989e-07
-1.00904e-07
1.48413e-07
-1.41262e-07
7.86694e-08
-1.72264e-07
-1.85337e-07
2.70546e-08
1.1087e-07
3.93784e-08
8.96704e-08
1.01076e-07
1.44542e-07
8.39223e-08
1.88893e-07
6.29555e-08
2.20208e-07
3.78226e-08
2.36401e-07
1.08787e-08
2.37047e-07
-1.6976e-08
2.21398e-07
-4.42496e-08
1.89277e-07
-6.87835e-08
1.3955e-07
-9.1534e-08
7.38129e-08
-1.06527e-07
-1.11524e-07
4.22777e-08
4.80525e-08
2.05396e-08
1.01667e-07
4.16869e-08
1.52346e-07
3.32431e-08
1.92723e-07
2.25781e-08
2.19969e-07
1.05765e-08
2.32569e-07
-1.72148e-09
2.30021e-07
-1.44281e-08
2.11778e-07
-2.60066e-08
1.78213e-07
-3.52179e-08
1.29084e-07
-4.24054e-08
6.73994e-08
-4.48419e-08
-4.41248e-08
1.00662e-07
-5.2609e-08
1.42348e-07
1.75592e-07
1.9817e-07
2.08746e-07
2.07025e-07
1.92597e-07
1.6659e-07
1.31372e-07
8.89667e-08
4.41248e-08
-5.36301e-07
-1.99188e-06
-6.95014e-07
-1.14965e-06
-6.86861e-07
-5.85409e-07
-6.9195e-07
-3.99776e-07
-7.07576e-07
-2.19725e-07
-7.01404e-07
-3.16699e-09
-6.63293e-07
2.19819e-07
-5.9162e-07
4.33693e-07
-4.90503e-07
6.26253e-07
-3.65754e-07
7.85492e-07
-2.23899e-07
9.00424e-07
9.61873e-07
-7.22516e-08
-4.35329e-07
-1.55655e-06
-5.92096e-07
-9.92886e-07
-6.00818e-07
-5.76687e-07
-6.13434e-07
-3.87159e-07
-6.27057e-07
-2.06102e-07
-6.20907e-07
-9.31702e-09
-5.87267e-07
1.86179e-07
-5.24346e-07
3.70772e-07
-4.34095e-07
5.36001e-07
-3.20596e-07
6.71994e-07
-1.89997e-07
7.69824e-07
8.22038e-07
-5.01616e-08
-3.34178e-07
-1.22237e-06
-4.82266e-07
-8.44798e-07
-5.15263e-07
-5.43691e-07
-5.40482e-07
-3.6194e-07
-5.56562e-07
-1.90023e-07
-5.5206e-07
-1.38189e-08
-5.2279e-07
1.56909e-07
-4.68042e-07
3.16024e-07
-3.89305e-07
4.57264e-07
-2.89827e-07
5.72516e-07
-1.74881e-07
6.54878e-07
6.98241e-07
-5.10838e-08
-2.53683e-07
-9.68686e-07
-3.89179e-07
-7.09301e-07
-4.4225e-07
-4.90621e-07
-4.77456e-07
-3.26734e-07
-4.96608e-07
-1.7087e-07
-4.94218e-07
-1.62094e-08
-4.68782e-07
1.31474e-07
-4.20515e-07
2.67757e-07
-3.5104e-07
3.87788e-07
-2.63466e-07
4.84943e-07
-1.625e-07
5.53912e-07
5.89564e-07
-5.38239e-08
-1.98854e-07
-7.69833e-07
-3.20405e-07
-5.8775e-07
-3.83737e-07
-4.27288e-07
-4.24863e-07
-2.85608e-07
-4.46296e-07
-1.49438e-07
-4.46101e-07
-1.64037e-08
-4.2403e-07
1.09402e-07
-3.81068e-07
2.24795e-07
-3.1891e-07
3.2563e-07
-2.40652e-07
4.06685e-07
-1.50536e-07
4.63796e-07
4.92919e-07
-5.38914e-08
-1.61703e-07
-6.0813e-07
-2.70749e-07
-4.78703e-07
-3.37901e-07
-3.60137e-07
-3.81765e-07
-2.41744e-07
-4.04646e-07
-1.26557e-07
-4.06235e-07
-1.48152e-08
-3.87202e-07
9.03688e-08
-3.4868e-07
1.86274e-07
-2.92521e-07
2.69471e-07
-2.21706e-07
3.35869e-07
-1.40109e-07
3.82199e-07
4.05509e-07
-5.26987e-08
-1.36312e-07
-4.71818e-07
-2.35024e-07
-3.79991e-07
-3.02454e-07
-2.92707e-07
-3.47115e-07
-1.97083e-07
-3.70747e-07
-1.02924e-07
-3.7389e-07
-1.16727e-08
-3.57326e-07
7.3805e-08
-3.22383e-07
1.5133e-07
-2.71064e-07
2.18151e-07
-2.06237e-07
2.71043e-07
-1.31533e-07
3.07496e-07
3.25415e-07
-5.14394e-08
-1.18805e-07
-3.53014e-07
-2.09421e-07
-2.89375e-07
-2.75447e-07
-2.26681e-07
-3.19856e-07
-1.52674e-07
-3.43784e-07
-7.89964e-08
-3.47937e-07
-7.51952e-09
-3.33287e-07
5.91547e-08
-3.01184e-07
1.19227e-07
-2.53651e-07
1.70618e-07
-1.93507e-07
2.10898e-07
-1.24201e-07
2.3819e-07
2.51114e-07
-4.98999e-08
-1.06548e-07
-2.46466e-07
-1.90958e-07
-2.04965e-07
-2.55048e-07
-1.62592e-07
-2.98738e-07
-1.08984e-07
-3.22632e-07
-5.51025e-08
-3.27392e-07
-2.75892e-09
-3.14021e-07
4.57832e-08
-2.83925e-07
8.91308e-08
-2.39106e-07
1.25799e-07
-1.82341e-07
1.54133e-07
-1.17068e-07
1.72917e-07
1.81171e-07
-4.71251e-08
-9.73661e-08
-1.491e-07
-1.76743e-07
-1.25588e-07
-2.38979e-07
-1.00356e-07
-2.81823e-07
-6.61401e-08
-3.05367e-07
-3.15586e-08
-3.10217e-07
2.09109e-09
-2.97388e-07
3.29544e-08
-2.68373e-07
6.01161e-08
-2.25153e-07
8.25796e-08
-1.70615e-07
9.95937e-08
-1.0806e-07
1.10363e-07
1.14361e-07
-4.12501e-08
-8.80886e-08
-6.10117e-08
-1.61896e-07
-5.1781e-08
-2.21058e-07
-4.11932e-08
-2.61632e-07
-2.55667e-08
-2.83319e-07
-9.87131e-09
-2.86621e-07
5.39244e-09
-2.72692e-07
1.90257e-08
-2.43127e-07
3.05512e-08
-2.00266e-07
3.97187e-08
-1.46885e-07
4.62124e-08
-8.6326e-08
4.98034e-08
5.02726e-08
-2.22379e-08
-6.10117e-08
-1.12793e-07
-1.53986e-07
-1.79553e-07
-1.89424e-07
-1.84032e-07
-1.65006e-07
-1.34455e-07
-9.4736e-08
-4.85235e-08
1.27985e-09
5.15524e-08
7.94891e-08
9.62084e-07
2.22223e-07
9.0116e-07
3.47697e-07
7.84057e-07
4.50032e-07
6.21918e-07
5.20909e-07
4.28092e-07
5.53008e-07
2.18739e-07
5.37729e-07
9.84404e-09
4.70763e-07
-1.93255e-07
3.62157e-07
-4.07269e-07
2.47631e-07
-6.97223e-07
1.48565e-07
-1.04395e-06
-1.16213e-06
8.91735e-08
8.22749e-07
2.19412e-07
7.70922e-07
3.31734e-07
6.71734e-07
4.20631e-07
5.33022e-07
4.82247e-07
3.66475e-07
5.13238e-07
1.87748e-07
5.12479e-07
1.0603e-08
4.7935e-07
-1.60126e-07
4.17226e-07
-3.45146e-07
3.21169e-07
-6.01165e-07
1.70441e-07
-8.9322e-07
-9.91692e-07
7.33237e-08
6.98342e-07
1.891e-07
6.55145e-07
2.89468e-07
5.71366e-07
3.68646e-07
4.53844e-07
4.23277e-07
3.11844e-07
4.53079e-07
1.57945e-07
4.60157e-07
3.52449e-09
4.46552e-07
-1.4652e-07
4.07224e-07
-3.05818e-07
3.20139e-07
-5.14081e-07
1.68128e-07
-7.41209e-07
-8.23564e-07
5.55987e-08
5.88919e-07
1.58182e-07
5.52562e-07
2.4775e-07
4.81797e-07
3.18801e-07
3.82794e-07
3.67804e-07
2.6284e-07
3.9465e-07
1.311e-07
4.01288e-07
-3.11323e-09
3.90134e-07
-1.35367e-07
3.56153e-07
-2.71838e-07
2.7864e-07
-4.36567e-07
1.46499e-07
-6.09068e-07
-6.77066e-07
4.27108e-08
4.92317e-07
1.3532e-07
4.59953e-07
2.15604e-07
4.01513e-07
2.79527e-07
3.1887e-07
3.24182e-07
2.18185e-07
3.48145e-07
1.07137e-07
3.52478e-07
-7.44618e-09
3.38781e-07
-1.2167e-07
3.04197e-07
-2.37254e-07
2.35799e-07
-3.68169e-07
1.24843e-07
-4.98112e-07
-5.52223e-07
3.53565e-08
4.04262e-07
1.18339e-07
3.7697e-07
1.90921e-07
3.28932e-07
2.49931e-07
2.5986e-07
2.9086e-07
1.77256e-07
3.12726e-07
8.52712e-08
3.15603e-07
-1.03237e-08
3.00266e-07
-1.06333e-07
2.65192e-07
-2.02179e-07
2.02906e-07
-3.05882e-07
1.07518e-07
-4.02724e-07
-4.44705e-07
2.92865e-08
3.23536e-07
1.04937e-07
3.0132e-07
1.72305e-07
2.61564e-07
2.26207e-07
2.05958e-07
2.64317e-07
1.39146e-07
2.84823e-07
6.47653e-08
2.87066e-07
-1.2567e-08
2.71306e-07
-9.05728e-08
2.36674e-07
-1.67548e-07
1.78701e-07
-2.47909e-07
9.45844e-08
-3.18608e-07
-3.50121e-07
2.48945e-08
2.48741e-07
9.54552e-08
2.30759e-07
1.57879e-07
1.9914e-07
2.08095e-07
1.55742e-07
2.43835e-07
1.03405e-07
2.62902e-07
4.5698e-08
2.64769e-07
-1.44341e-08
2.49376e-07
-7.5179e-08
2.15656e-07
-1.33829e-07
1.61165e-07
-1.93417e-07
8.53393e-08
-2.42782e-07
-2.64782e-07
2.31498e-08
1.78466e-07
8.95429e-08
1.64366e-07
1.48161e-07
1.40522e-07
1.95556e-07
1.08347e-07
2.28944e-07
7.00173e-08
2.46979e-07
2.76624e-08
2.4859e-07
-1.60454e-08
2.33303e-07
-5.98915e-08
2.0061e-07
-1.01136e-07
1.48874e-07
-1.41681e-07
7.89036e-08
-1.72812e-07
-1.85878e-07
2.55915e-08
1.11624e-07
8.83701e-08
1.01588e-07
1.44143e-07
8.47487e-08
1.88808e-07
6.36828e-08
2.2044e-07
3.83848e-08
2.36898e-07
1.12047e-08
2.37662e-07
-1.68095e-08
2.22038e-07
-4.42679e-08
1.89853e-07
-6.89514e-08
1.39979e-07
-9.18069e-08
7.40313e-08
-1.06864e-07
-1.11847e-07
4.11872e-08
4.81993e-08
1.00657e-07
4.21178e-08
1.51895e-07
3.35107e-08
1.92594e-07
2.29838e-08
2.20184e-07
1.07942e-08
2.33015e-07
-1.62606e-09
2.3061e-07
-1.44046e-08
2.12389e-07
-2.60472e-08
1.78753e-07
-3.53148e-08
1.29481e-07
-4.25346e-08
6.75982e-08
-4.49821e-08
-4.42487e-08
9.97517e-08
1.4187e-07
1.7538e-07
1.98364e-07
2.09158e-07
2.07532e-07
1.93127e-07
1.6708e-07
1.31765e-07
8.92309e-08
4.42487e-08
-5.3612e-07
-1.98997e-06
-6.94566e-07
-1.146e-06
-6.8533e-07
-5.79857e-07
-6.89606e-07
-3.95267e-07
-7.04843e-07
-2.15993e-07
-6.98349e-07
-3.05899e-11
-6.599e-07
2.22503e-07
-5.87841e-07
4.36351e-07
-4.86149e-07
6.27977e-07
-3.61282e-07
7.85877e-07
-2.20045e-07
8.99071e-07
9.5866e-07
-4.35377e-07
-1.55459e-06
-5.91848e-07
-9.89525e-07
-5.99514e-07
-5.72191e-07
-6.11422e-07
-3.83358e-07
-6.24606e-07
-2.0281e-07
-6.18106e-07
-6.52995e-09
-5.84127e-07
1.88523e-07
-5.208e-07
3.73024e-07
-4.30123e-07
5.373e-07
-3.16478e-07
6.72231e-07
-1.86158e-07
7.68751e-07
8.19305e-07
-3.34177e-07
-1.22042e-06
-4.81909e-07
-8.41793e-07
-5.14041e-07
-5.40059e-07
-5.38685e-07
-3.58714e-07
-5.54336e-07
-1.87159e-07
-5.49483e-07
-1.13833e-08
-5.19912e-07
1.58952e-07
-4.64758e-07
3.1787e-07
-3.85731e-07
4.58273e-07
-2.86132e-07
5.72632e-07
-1.71296e-07
6.53916e-07
6.95842e-07
-2.53573e-07
-9.66845e-07
-3.88702e-07
-7.06663e-07
-4.41101e-07
-4.8766e-07
-4.75817e-07
-3.23998e-07
-4.94562e-07
-1.68414e-07
-4.9183e-07
-1.41146e-08
-4.66112e-07
1.33234e-07
-4.17473e-07
2.69231e-07
-3.47809e-07
3.88609e-07
-2.60157e-07
4.8498e-07
-1.59268e-07
5.53027e-07
5.87464e-07
-1.98681e-07
-7.68163e-07
-3.19855e-07
-5.85489e-07
-3.82657e-07
-4.24859e-07
-4.23343e-07
-2.83311e-07
-4.44393e-07
-1.47365e-07
-4.43874e-07
-1.46335e-08
-4.21528e-07
1.10888e-07
-3.7825e-07
2.25954e-07
-3.15947e-07
3.26306e-07
-2.37658e-07
4.06692e-07
-1.47604e-07
4.62972e-07
4.91143e-07
-1.61495e-07
-6.06668e-07
-2.70183e-07
-4.76801e-07
-3.36876e-07
-3.58166e-07
-3.8034e-07
-2.39847e-07
-4.02863e-07
-1.24842e-07
-4.04147e-07
-1.33495e-08
-3.84853e-07
9.15941e-08
-3.46092e-07
1.87192e-07
-2.89773e-07
2.69987e-07
-2.18917e-07
3.35836e-07
-1.37444e-07
3.81499e-07
4.04041e-07
-1.36082e-07
-4.70586e-07
-2.34444e-07
-3.7844e-07
-3.01476e-07
-2.91134e-07
-3.45766e-07
-1.95557e-07
-3.6906e-07
-1.01548e-07
-3.71915e-07
-1.04952e-08
-3.55103e-07
7.47827e-08
-3.19943e-07
1.52032e-07
-2.68499e-07
2.18542e-07
-2.03637e-07
2.70974e-07
-1.29053e-07
3.06915e-07
3.24227e-07
-1.18561e-07
-3.52025e-07
-2.0884e-07
-2.8816e-07
-2.74506e-07
-2.25468e-07
-3.18566e-07
-1.51497e-07
-3.42178e-07
-7.79359e-08
-3.4605e-07
-6.62284e-09
-3.31162e-07
5.98942e-08
-2.98871e-07
1.19741e-07
-2.51237e-07
1.70908e-07
-1.91054e-07
2.10792e-07
-1.21876e-07
2.37737e-07
2.50173e-07
-1.06295e-07
-2.4573e-07
-1.9038e-07
-2.04076e-07
-2.54132e-07
-1.61716e-07
-2.9749e-07
-1.08139e-07
-3.21082e-07
-5.4344e-08
-3.25573e-07
-2.13248e-09
-3.11983e-07
4.63049e-08
-2.8171e-07
8.9468e-08
-2.36774e-07
1.25973e-07
-1.80024e-07
1.54041e-07
-1.14848e-07
1.7256e-07
1.8048e-07
-9.71095e-08
-1.4862e-07
-1.76164e-07
-1.25021e-07
-2.38073e-07
-9.9807e-08
-2.80594e-07
-6.56174e-08
-3.03845e-07
-3.10934e-08
-3.08422e-07
2.44491e-09
-2.95391e-07
3.32741e-08
-2.66235e-07
6.03113e-08
-2.22902e-07
8.26405e-08
-1.68377e-07
9.9516e-08
-1.05937e-07
1.1012e-07
1.13922e-07
-8.78304e-08
-6.07898e-08
-1.61321e-07
-5.15309e-08
-2.20166e-07
-4.09617e-08
-2.6043e-07
-2.53531e-08
-2.81834e-07
-9.68923e-09
-2.84915e-07
5.52572e-09
-2.70779e-07
1.91381e-08
-2.41074e-07
3.0606e-08
-1.98156e-07
3.97228e-08
-1.44791e-07
4.61509e-08
-8.43486e-08
4.96774e-08
5.01129e-08
-6.07898e-08
-1.12321e-07
-1.53282e-07
-1.78636e-07
-1.88325e-07
-1.82799e-07
-1.63661e-07
-1.33055e-07
-9.33321e-08
-4.71812e-08
2.49617e-09
)
;

boundaryField
{
    rotor
    {
        type            calculated;
        value           nonuniform 0();
    }
    stator
    {
        type            calculated;
        value           nonuniform List<scalar> 
96
(
-4.70198e-38
0
-5.56714e-35
3.00927e-36
0
3.00927e-35
-2.0881e-53
-6.01853e-36
4.81482e-35
0
-1.14521e-34
1.20371e-35
2.42431e-35
4.81482e-35
0
7.54006e-35
0
1.80556e-35
-1.18681e-35
-3.00927e-36
5.52012e-35
-3.1555e-35
0
-8.24874e-35
4.70198e-38
-6.06078e-36
0
0
3.00927e-36
0
6.62038e-35
2.40741e-35
0
2.40741e-35
0
-6.52825e-35
1.20371e-35
1.02484e-34
0
9.0278e-35
-6.01853e-36
-5.0029e-35
2.86725e-35
-4.13774e-36
3.00927e-36
-5.19098e-35
0
-4.70198e-38
0
6.01853e-36
0
0
-6.01853e-36
0
0
-6.01853e-36
-1.20371e-35
0
0
0
0
-6.01853e-36
-3.00927e-36
-6.01853e-36
0
-6.01853e-36
6.01853e-36
0
0
0
0
0
0
6.01853e-36
0
0
-6.01853e-36
3.00927e-36
0
-6.01853e-36
0
0
0
0
0
-6.01853e-36
0
0
6.01853e-36
0
0
6.01853e-36
1.20371e-35
0
0
0
)
;
    }
    AMI1
    {
        type            cyclicAMI;
        value           nonuniform 0();
    }
    AMI2
    {
        type            cyclicAMI;
        value           nonuniform List<scalar> 
48
(
-1.87002e-06
-1.75476e-06
-1.53855e-06
-1.2222e-06
-7.94366e-07
-3.10573e-07
1.69577e-07
6.12e-07
1.03292e-06
1.45453e-06
1.8809e-06
2.20239e-06
2.13851e-06
1.71138e-06
1.37657e-06
9.9333e-07
5.49879e-07
9.06222e-08
-3.36072e-07
-6.98489e-07
-1.00577e-06
-1.28839e-06
-1.55452e-06
-1.80463e-06
-1.88518e-06
-1.77169e-06
-1.55237e-06
-1.22936e-06
-7.96025e-07
-3.09223e-07
1.71513e-07
6.13489e-07
1.03389e-06
1.45514e-06
1.8812e-06
2.20327e-06
2.13624e-06
1.70566e-06
1.37038e-06
9.88046e-07
5.45784e-07
8.76031e-08
-3.38258e-07
-7.00105e-07
-1.007e-06
-1.28886e-06
-1.55271e-06
-1.79616e-06
)
;
    }
    front
    {
        type            empty;
        value           nonuniform 0();
    }
    back
    {
        type            empty;
        value           nonuniform 0();
    }
    procBoundary1to0
    {
        type            processor;
        value           nonuniform List<scalar> 8(-4.02755e-07 -5.07817e-07 -6.46577e-07 -6.09401e-07 4.02097e-07 5.08127e-07 6.47016e-07 6.09739e-07);
    }
}


// ************************************************************************* //
