/*--------------------------------*- C++ -*----------------------------------*\
| =========                 |                                                 |
| \\      /  F ield         | OpenFOAM: The Open Source CFD Toolbox           |
|  \\    /   O peration     | Version:  v1806                                 |
|   \\  /    A nd           | Web:      www.OpenFOAM.com                      |
|    \\/     M anipulation  |                                                 |
\*---------------------------------------------------------------------------*/
FoamFile
{
    version     2.0;
    format      ascii;
    class       volVectorField;
    location    "1";
    object      U;
}
// * * * * * * * * * * * * * * * * * * * * * * * * * * * * * * * * * * * * * //

dimensions      [0 1 -1 0 0 0 0];


internalField   nonuniform List<vector> 
768
(
(0.0438113 0.0266978 8.32051e-22)
(0.042135 0.0143622 -7.56554e-21)
(0.0367127 0.00391085 -3.00664e-20)
(0.028516 -0.00333881 0)
(0.018282 -0.00629778 1.27472e-19)
(0.00763019 -0.00414348 4.33816e-20)
(-0.00152995 0.0024317 -1.58296e-19)
(-0.00858695 0.0115946 0)
(-0.0143172 0.0217641 -8.89313e-20)
(-0.0191474 0.032618 2.79876e-20)
(-0.0234797 0.0450439 -2.73963e-20)
(-0.0289681 0.0537394 -3.95694e-20)
(0.0369045 0.0176548 1.04434e-21)
(0.035153 0.00796395 -4.82627e-21)
(0.0303874 -0.000955616 2.71714e-20)
(0.0233044 -0.00761054 0)
(0.0144012 -0.0111811 -7.56315e-20)
(0.00472468 -0.0108206 9.68037e-20)
(-0.00433418 -0.0068927 5.40213e-20)
(-0.0122117 -0.000188562 3.87761e-21)
(-0.0188822 0.00860768 4.02838e-20)
(-0.0226928 0.0198191 0)
(-0.0257175 0.0334971 0)
(-0.0269495 0.0512212 -4.36401e-20)
(0.0313049 0.00858769 0)
(0.029131 5.73457e-05 6.38646e-21)
(0.0244361 -0.00766172 -2.18086e-20)
(0.0178829 -0.0135853 -1.54716e-20)
(0.00971608 -0.017157 1.06187e-19)
(0.000916745 -0.0176849 -5.69016e-20)
(-0.00756062 -0.0150292 1.14278e-19)
(-0.014908 -0.00922721 -3.54226e-20)
(-0.020385 -0.000498577 4.81218e-21)
(-0.0219211 0.0118552 6.62251e-21)
(-0.0242285 0.0244237 1.00736e-19)
(-0.0206074 0.0458798 4.25111e-20)
(0.0263332 0.00212587 0)
(0.0240485 -0.00574417 -1.03381e-20)
(0.0195167 -0.0125624 0)
(0.0133635 -0.017812 -4.60015e-20)
(0.00594386 -0.0210248 0)
(-0.00185699 -0.0216497 -2.90511e-20)
(-0.00918502 -0.0193624 -1.39438e-19)
(-0.0150942 -0.0139725 3.32902e-20)
(-0.0189788 -0.00567951 0)
(-0.0201598 0.00584819 0)
(-0.0232928 0.0154621 1.76387e-20)
(-0.0166288 0.0332589 -1.5566e-20)
(0.029703 -0.0484723 5.19547e-21)
(0.0174431 -0.0367642 -9.8057e-21)
(-0.00452075 -0.0421891 9.83479e-21)
(-0.0219701 -0.0408843 -9.18655e-20)
(-0.034702 -0.0326907 6.16837e-20)
(-0.0441332 -0.0213376 -8.77754e-20)
(-0.0497762 -0.00876987 -3.47461e-20)
(-0.0524459 0.00311586 -1.10563e-20)
(-0.0531467 0.0138218 0)
(-0.0517756 0.023684 0)
(-0.0473777 0.0328318 -8.64625e-21)
(-0.0387015 0.0406249 7.00146e-21)
(0.025118 -0.0556629 -1.0439e-20)
(0.0133172 -0.0328076 0)
(-0.00698759 -0.0305934 0)
(-0.0209538 -0.0317973 3.38711e-20)
(-0.0308867 -0.0269621 -1.68264e-20)
(-0.0382664 -0.0181763 2.19478e-20)
(-0.0424833 -0.00755897 0)
(-0.0439301 0.00335922 -2.87805e-20)
(-0.0429948 0.0134924 -9.72581e-21)
(-0.0400048 0.0223473 1.56809e-20)
(-0.0349059 0.0296913 -6.99023e-21)
(-0.0273613 0.0351098 2.03266e-21)
(0.0196076 -0.0628968 5.23678e-21)
(0.00596059 -0.0362152 1.67942e-20)
(-0.0114688 -0.0272686 8.35054e-21)
(-0.0209146 -0.026688 1.58283e-20)
(-0.0278932 -0.0227459 1.91797e-20)
(-0.033536 -0.0152416 0)
(-0.0364695 -0.00603143 9.16293e-21)
(-0.0367376 0.00351086 1.97763e-20)
(-0.0346374 0.0125296 8.64174e-21)
(-0.0305338 0.020333 -1.53191e-20)
(-0.0246616 0.0264312 5.68476e-21)
(-0.017199 0.030367 -1.68297e-21)
(0.0183113 -0.0610505 1.34669e-20)
(-0.00169816 -0.0392353 -2.40613e-20)
(-0.0154058 -0.0264934 -1.22889e-20)
(-0.0205831 -0.0235883 -2.26638e-21)
(-0.0253116 -0.0197661 -4.62236e-20)
(-0.029574 -0.0133258 -1.67265e-20)
(-0.0316861 -0.00539628 4.87902e-20)
(-0.0313729 0.00300194 0)
(-0.0287017 0.0109987 2.77689e-20)
(-0.0240289 0.0178587 0)
(-0.0177519 0.0230268 -7.76192e-21)
(-0.0102829 0.0260528 -2.6214e-22)
(-0.0264343 0.0442329 -1.68305e-21)
(-0.0139173 0.0425728 0)
(-0.00353184 0.0370868 -2.62686e-20)
(0.00364436 0.0287127 4.1452e-20)
(0.00646784 0.0183386 0)
(0.00420129 0.00762793 6.93763e-20)
(-0.00245522 -0.00153656 1.20985e-20)
(-0.0116663 -0.00857331 -2.06158e-19)
(-0.0218402 -0.0142995 -3.58373e-20)
(-0.0326605 -0.0191552 1.01036e-19)
(-0.0450369 -0.0235193 2.7904e-20)
(-0.0536965 -0.029103 4.21426e-20)
(-0.0177751 0.037195 -1.12133e-21)
(-0.00780219 0.0355041 1.07967e-21)
(0.00105487 0.0307704 2.56266e-20)
(0.00778455 0.0235272 0)
(0.0112851 0.0144928 9.77525e-20)
(0.0108628 0.00475062 7.5945e-20)
(0.00687917 -0.00432791 1.12627e-20)
(0.000147484 -0.0122141 -4.12186e-20)
(-0.00864118 -0.0189106 1.20709e-19)
(-0.019835 -0.0227557 -1.27015e-19)
(-0.0334845 -0.0258083 0)
(-0.0511797 -0.0270841 -4.5976e-20)
(-0.00865889 0.031402 9.25731e-22)
(-4.93649e-05 0.029384 -9.82785e-22)
(0.00766322 0.0247838 0)
(0.0136995 0.0180841 5.3688e-20)
(0.0172418 0.00981492 -9.15231e-20)
(0.0177451 0.000948651 -9.38383e-20)
(0.0150652 -0.00756552 1.24389e-19)
(0.00925139 -0.0149461 1.44358e-19)
(0.000522011 -0.020467 1.2898e-19)
(-0.0118431 -0.0220275 -1.32019e-19)
(-0.0244037 -0.0243407 2.35253e-20)
(-0.0458415 -0.0207534 9.3941e-20)
(-0.00220386 0.0264896 8.6408e-22)
(0.00567459 0.0243066 -9.02723e-22)
(0.0125875 0.0198138 0)
(0.0179386 0.0135257 -6.53056e-20)
(0.0211505 0.00602191 -2.07398e-21)
(0.0217648 -0.00184417 2.30267e-20)
(0.0194605 -0.00921964 0)
(0.0140466 -0.0151681 -4.38121e-20)
(0.00573067 -0.0190766 -9.33081e-20)
(-0.00583004 -0.0202634 4.71854e-21)
(-0.0154599 -0.0234036 -7.9406e-20)
(-0.0332164 -0.0167884 -1.05732e-19)
(-0.0483524 -0.029798 -1.06507e-21)
(-0.0364854 -0.0175414 9.78438e-21)
(-0.0419493 0.00446562 -9.81379e-21)
(-0.0406817 0.0219041 0)
(-0.0325113 0.0346054 0)
(-0.0211896 0.0440298 1.09756e-19)
(-0.00865086 0.0496779 -8.16795e-21)
(0.00320934 0.0523725 3.5091e-20)
(0.0139052 0.05312 0)
(0.0237614 0.0518235 -2.11805e-20)
(0.0328684 0.0475413 -8.66187e-21)
(0.0404319 0.0388649 2.58031e-21)
(-0.0556109 -0.0251885 0)
(-0.032601 -0.013397 0)
(-0.0303503 0.00694398 0)
(-0.0316077 0.0209013 -1.73357e-20)
(-0.0267989 0.0308029 -1.80886e-21)
(-0.0180293 0.038168 -2.18963e-20)
(-0.00742568 0.0423883 4.20156e-20)
(0.00347152 0.0438534 -3.8588e-20)
(0.0135879 0.0429291 0)
(0.0224174 0.0399168 1.20343e-20)
(0.0296878 0.0347569 4.87931e-21)
(0.0349749 0.0271551 -1.19521e-21)
(-0.0628399 -0.0196764 0)
(-0.0360553 -0.00600692 1.67886e-20)
(-0.0270481 0.0114513 -4.58667e-21)
(-0.0265079 0.0208796 -2.85176e-21)
(-0.0225919 0.0278234 1.58592e-20)
(-0.0151034 0.0334481 1.6918e-20)
(-0.00590615 0.0363656 2.74117e-20)
(0.00362467 0.036625 1.97688e-20)
(0.0126248 0.0345135 8.6491e-21)
(0.0203793 0.0303643 -1.53692e-20)
(0.0263807 0.0244123 -4.78656e-21)
(0.0302254 0.0169344 0)
(-0.0609765 -0.018349 3.82257e-21)
(-0.0391217 0.00170241 3.18526e-21)
(-0.0263137 0.0154307 0)
(-0.0234279 0.0205651 0)
(-0.019626 0.025253 -1.60001e-20)
(-0.0131975 0.0294918 -1.43564e-21)
(-0.00527451 0.0315861 -4.8762e-20)
(0.00311045 0.0312492 0)
(0.0110837 0.0285472 -2.78373e-20)
(0.0179003 0.0238456 0)
(0.0229943 0.0175494 -3.17563e-21)
(0.0259411 0.0101047 0)
(0.0219933 -0.000908787 8.52136e-22)
(0.0198274 -0.0081041 1.00212e-20)
(0.0157137 -0.0141628 0)
(0.0101836 -0.0187324 4.45712e-20)
(0.0036889 -0.0214362 1.34847e-20)
(-0.00297358 -0.02195 7.5834e-20)
(-0.00903575 -0.020128 -2.93308e-20)
(-0.0137786 -0.0158854 0)
(-0.0171166 -0.00938318 0)
(-0.0198437 -0.000419387 -2.12774e-20)
(-0.023779 0.00782244 -5.40738e-20)
(-0.0220973 0.0135751 0)
(0.0182203 -0.00145772 -8.28828e-22)
(0.0163428 -0.00791335 0)
(0.0127952 -0.0133161 2.70241e-20)
(0.00801591 -0.0173279 -1.03061e-20)
(0.00247441 -0.0196432 1.03428e-20)
(-0.00316316 -0.0201251 -7.13182e-20)
(-0.00827446 -0.0188768 -5.23256e-20)
(-0.0124564 -0.016002 2.62282e-20)
(-0.0159597 -0.0115161 0)
(-0.0195908 -0.00471314 0)
(-0.0226789 0.00370592 0)
(-0.019084 0.0122563 0)
(0.0150076 -0.000994905 8.41661e-22)
(0.0134508 -0.00668074 1.04739e-20)
(0.0104826 -0.0114791 -2.88853e-20)
(0.00644366 -0.0150437 0)
(0.00175295 -0.0171094 0)
(-0.00304083 -0.0175958 2.05061e-19)
(-0.00746748 -0.0166866 -1.15895e-19)
(-0.0112616 -0.014615 0)
(-0.0147025 -0.0113635 2.1615e-20)
(-0.0179607 -0.00595417 -4.10157e-20)
(-0.0196988 0.00165636 1.94314e-20)
(-0.0157824 0.0096231 0)
(0.0123015 -0.000488529 -8.19088e-22)
(0.0110341 -0.00546433 -7.67377e-21)
(0.00855203 -0.00969836 2.25871e-20)
(0.00516211 -0.0128759 -2.13228e-20)
(0.00120908 -0.0147595 2.7222e-20)
(-0.00285885 -0.0152477 1.59266e-20)
(-0.006662 -0.0144847 1.53538e-19)
(-0.00995526 -0.012694 2.14533e-20)
(-0.0128736 -0.00996983 -2.13666e-20)
(-0.0152973 -0.00549899 -7.77688e-20)
(-0.0161994 0.000796356 0)
(-0.0127384 0.00755547 0)
(0.0100203 -0.000167986 0)
(0.00896583 -0.00455102 0)
(0.00688636 -0.00830179 -2.19889e-20)
(0.00403725 -0.0111569 2.89223e-20)
(0.000706709 -0.0128921 3.99176e-20)
(-0.00273457 -0.0133932 -1.79727e-19)
(-0.00595533 -0.0127508 -4.2705e-20)
(-0.00872241 -0.0111073 -9.97762e-20)
(-0.0110272 -0.00863906 0)
(-0.0127499 -0.00482417 7.57342e-20)
(-0.0131517 0.000279816 7.04323e-20)
(-0.0102093 0.00586246 0)
(0.00806851 4.50129e-05 0)
(0.00716663 -0.00386245 -2.08091e-21)
(0.00543386 -0.00723013 2.0794e-21)
(0.00302793 -0.00981381 -7.14858e-21)
(0.000220144 -0.0114247 -1.17854e-19)
(-0.00268513 -0.0119492 8.97225e-20)
(-0.00540056 -0.0114351 -1.80957e-20)
(-0.00770237 -0.00996267 7.74431e-20)
(-0.00952283 -0.00771232 1.84046e-20)
(-0.0107001 -0.00439358 -1.83662e-20)
(-0.0106941 -0.000172087 -6.86563e-20)
(-0.00816156 0.0044772 0)
(0.006366 0.000206556 0)
(0.00560628 -0.0033185 -1.96637e-21)
(0.00415154 -0.00637278 1.96479e-21)
(0.00211648 -0.00873088 0)
(-0.000244388 -0.0102443 6.72146e-20)
(-0.00268894 -0.0107915 9.18928e-21)
(-0.00496346 -0.0104076 3.4419e-20)
(-0.00686069 -0.00912223 8.87446e-20)
(-0.00827664 -0.00710778 -7.08623e-20)
(-0.00902385 -0.00420124 0)
(-0.00871085 -0.000630779 -1.34259e-19)
(-0.00647291 0.0032845 0)
(0.00486469 0.000314816 0)
(0.0042368 -0.00289689 -1.87021e-21)
(0.00300255 -0.00569041 -1.57558e-20)
(0.00129333 -0.00786938 -6.31574e-21)
(-0.000689405 -0.00930162 -4.79986e-20)
(-0.00273469 -0.00987067 1.60122e-20)
(-0.00462192 -0.00960148 -8.32797e-20)
(-0.00616526 -0.00849651 -1.36897e-19)
(-0.00723039 -0.006726 -6.70723e-20)
(-0.0076377 -0.00417538 -1.65894e-20)
(-0.00709967 -0.00110995 1.64851e-20)
(-0.0050732 0.00224375 0)
(0.0035266 0.000337634 0)
(0.00300879 -0.00261876 0)
(0.00195836 -0.00519865 1.71819e-20)
(0.000531879 -0.00723265 0)
(-0.00112938 -0.00859477 1.11004e-21)
(-0.00282612 -0.00918089 1.52509e-20)
(-0.00437372 -0.00900599 -1.52555e-20)
(-0.00559499 -0.00806681 6.59911e-20)
(-0.00635677 -0.00651756 1.77412e-20)
(-0.00648554 -0.00427594 -1.46462e-19)
(-0.00576855 -0.00161349 1.27777e-19)
(-0.00387505 0.00131062 -1.25938e-19)
(0.00232079 0.000208281 0)
(0.00188386 -0.00253799 -5.56786e-21)
(0.000992889 -0.00493991 1.62292e-20)
(-0.000198895 -0.00684823 -5.7556e-21)
(-0.00157888 -0.00813975 6.2908e-20)
(-0.00296813 -0.00872665 -4.80717e-20)
(-0.00420867 -0.00861667 6.1178e-20)
(-0.00513546 -0.00780761 -1.54449e-20)
(-0.00562327 -0.00643827 1.27943e-19)
(-0.00550573 -0.00445477 1.11166e-19)
(-0.00463253 -0.00211112 1.57214e-20)
(-0.00281858 0.00047113 1.22895e-19)
(0.00123469 -0.000453171 0)
(0.00082993 -0.00298392 1.62176e-20)
(7.15778e-05 -0.00518265 -1.58304e-20)
(-0.00093208 -0.00691276 0)
(-0.00206326 -0.00806331 6.41079e-21)
(-0.00317523 -0.00855641 3.4108e-20)
(-0.00411213 -0.00841138 5.71078e-20)
(-0.00473321 -0.00763449 3.02682e-20)
(-0.00493265 -0.00635114 -1.54258e-19)
(-0.00456923 -0.00455256 -1.07809e-19)
(-0.00356307 -0.00246908 0)
(-0.00185152 -0.000225966 0)
(0.000180381 -0.00306068 1.3797e-21)
(-0.000248511 -0.00486077 -2.77446e-23)
(-0.000873017 -0.00631525 0)
(-0.0016137 -0.00732828 -5.34051e-21)
(-0.0023647 -0.00783376 5.33903e-21)
(-0.0030223 -0.00780367 6.58473e-20)
(-0.00346622 -0.0072788 -2.39599e-19)
(-0.00361183 -0.00630515 0)
(-0.00341737 -0.00502187 1.19813e-19)
(-0.0028493 -0.00351465 1.19607e-19)
(-0.00195271 -0.00197873 1.18412e-19)
(-0.000821467 -0.00048406 -1.17268e-19)
(0.0224312 -0.0446371 -1.32962e-20)
(-0.00462951 -0.0372445 -4.65368e-20)
(-0.0153044 -0.0258915 5.49978e-20)
(-0.0186223 -0.0215889 0)
(-0.0225555 -0.0175495 5.90828e-20)
(-0.0260518 -0.0118382 1.51971e-20)
(-0.0277506 -0.00505191 -4.63659e-20)
(-0.027312 0.00212271 -2.07323e-20)
(-0.0246803 0.00902809 -3.37932e-20)
(-0.0200889 0.0149965 0)
(-0.0139477 0.0194472 7.56563e-21)
(-0.00677885 0.0219374 -1.96338e-22)
(0.0168753 -0.0344395 0)
(-0.0035588 -0.0317517 4.63091e-20)
(-0.0121905 -0.0236143 -5.42591e-20)
(-0.016047 -0.0195702 0)
(-0.0198764 -0.0156125 3.93787e-20)
(-0.0229588 -0.0105727 1.37719e-20)
(-0.0244108 -0.00475686 -5.31903e-20)
(-0.0240093 0.00132946 2.00998e-21)
(-0.0216838 0.0071808 0)
(-0.0175815 0.0122639 0)
(-0.0120347 0.0160639 0)
(-0.00553331 0.0181759 -1.493e-22)
(0.0127693 -0.0257917 0)
(-0.00230095 -0.0257999 3.11227e-20)
(-0.00947184 -0.0207366 5.55854e-20)
(-0.0138104 -0.0174465 0)
(-0.0175304 -0.0138727 -3.87758e-20)
(-0.0203107 -0.00948345 2.49704e-20)
(-0.0215775 -0.00449805 7.03934e-20)
(-0.0212204 0.000682131 -9.75179e-21)
(-0.0192008 0.00564217 -1.38596e-20)
(-0.0156411 0.00993951 0)
(-0.0108195 0.0131526 -4.42579e-21)
(-0.00514422 0.0149439 7.22392e-23)
(0.0100607 -0.0196602 0)
(-0.00129615 -0.0206416 -4.07782e-20)
(-0.00755974 -0.0178543 -8.78233e-20)
(-0.0120443 -0.0153763 0)
(-0.0155811 -0.0123056 -1.19428e-20)
(-0.0180946 -0.00854069 -3.70587e-20)
(-0.0192095 -0.00428073 4.49274e-20)
(-0.0188784 0.000134148 2.17833e-20)
(-0.017095 0.00435601 1.42608e-21)
(-0.0139786 0.00799982 1.35008e-21)
(-0.009783 0.0107196 3.23966e-21)
(-0.00485448 0.012236 -4.61025e-22)
(0.00771678 -0.0150295 1.033e-20)
(-0.000926209 -0.016546 -2.09659e-20)
(-0.00637152 -0.015225 4.26877e-20)
(-0.0107155 -0.0134529 1.09765e-20)
(-0.0140016 -0.0109055 5.60116e-20)
(-0.0162636 -0.00772477 -1.12915e-20)
(-0.0172472 -0.00410453 -8.03118e-20)
(-0.0169333 -0.000344371 -6.23827e-22)
(-0.0153339 0.00325433 1.59525e-20)
(-0.0125652 0.00635281 -1.51284e-20)
(-0.00886291 0.00866341 0)
(-0.00453219 0.00995302 -2.04367e-22)
(0.00585397 -0.0116476 0)
(-0.000952764 -0.0133502 -1.04339e-20)
(-0.00569795 -0.0129296 1.04504e-20)
(-0.00974265 -0.0117236 0)
(-0.0127432 -0.00966924 -3.29113e-20)
(-0.0147678 -0.00701998 -4.20454e-20)
(-0.0156308 -0.00396383 3.03433e-20)
(-0.0153261 -0.000770506 -4.07404e-21)
(-0.0138752 0.0022906 4.06848e-21)
(-0.0113895 0.00492718 1.12908e-20)
(-0.00808196 0.00689318 0)
(-0.00422674 0.00799474 2.20237e-23)
(0.00427711 -0.00902241 8.14031e-20)
(-0.00122807 -0.0108207 7.13853e-20)
(-0.00537619 -0.0109587 -6.87742e-23)
(-0.00905503 -0.0102026 1.03104e-20)
(-0.0117628 -0.00859238 4.07803e-20)
(-0.0135654 -0.00641705 5.01342e-20)
(-0.0143134 -0.00385662 -9.63842e-21)
(-0.0140075 -0.00115805 0)
(-0.0126732 0.00143697 0)
(-0.0104175 0.00367844 0)
(-0.00743246 0.00535103 2.29735e-21)
(-0.0039643 0.006291 1.47216e-22)
(0.00291843 -0.00693028 -6.9512e-20)
(-0.00164925 -0.00877684 -8.96003e-20)
(-0.00529487 -0.0092778 0)
(-0.00859983 -0.00888491 0)
(-0.0110243 -0.00766653 -6.92041e-20)
(-0.0126193 -0.00590942 3.71329e-20)
(-0.0132543 -0.00378357 -3.98526e-20)
(-0.012933 -0.00151687 -3.83599e-20)
(-0.0116847 0.000677352 3.53125e-21)
(-0.00960983 0.00257658 -8.48483e-22)
(-0.00688416 0.00399636 -1.53322e-21)
(-0.00372928 0.00479499 0)
(0.00172018 -0.0052056 0)
(-0.00215059 -0.00708495 -9.73809e-21)
(-0.00537377 -0.00783838 9.73212e-21)
(-0.00832683 -0.00774704 9.56775e-21)
(-0.0104853 -0.00687432 3.7849e-20)
(-0.0118846 -0.00548649 -3.72091e-20)
(-0.0124046 -0.00374376 2.52156e-20)
(-0.0120509 -0.00185478 5.90974e-20)
(-0.010855 -1.06972e-05 0)
(-0.00891348 0.00159143 7.83836e-22)
(-0.00638788 0.00279143 -7.84681e-22)
(-0.00348006 0.0034661 0)
(0.000656064 -0.00373828 0)
(-0.00266749 -0.00563835 -9.49401e-21)
(-0.00553385 -0.00657877 6.34212e-23)
(-0.00816586 -0.00674749 8.427e-20)
(-0.0100767 -0.00618389 -8.19978e-20)
(-0.0112859 -0.00512272 5.22007e-20)
(-0.0116815 -0.00371921 -4.61877e-21)
(-0.0112731 -0.00216402 -3.54273e-20)
(-0.010093 -0.000632526 3.18586e-21)
(-0.00823772 0.000707382 7.88269e-21)
(-0.00585717 0.00171066 0)
(-0.00313775 0.00227265 0)
(-0.000240463 -0.00245367 0)
(-0.00306618 -0.00431972 0)
(-0.00558992 -0.00537716 0)
(-0.00788049 -0.00575129 -7.30533e-20)
(-0.00951038 -0.00545027 1.50897e-19)
(-0.0104803 -0.00467497 -4.26421e-20)
(-0.0106951 -0.0035746 3.64389e-21)
(-0.0101693 -0.00232503 -3.64413e-21)
(-0.00894388 -0.00108496 0)
(-0.00711851 -2.96854e-06 -1.59929e-20)
(-0.00483784 0.000795772 4.38442e-21)
(-0.00227435 0.00122395 -8.33201e-23)
(-0.000653719 -0.00114816 7.21129e-20)
(-0.00254618 -0.00246304 0)
(-0.00422729 -0.0032908 -8.88684e-21)
(-0.0056565 -0.00363649 7.95252e-20)
(-0.00654899 -0.00349491 -6.05058e-20)
(-0.00689541 -0.00301052 -1.62479e-20)
(-0.00664764 -0.00230493 4.14809e-20)
(-0.0058523 -0.00151794 -6.49059e-21)
(-0.00457703 -0.000769813 2.96763e-21)
(-0.00292099 -0.000164235 1.47338e-20)
(-0.00100953 0.000221875 -3.49682e-21)
(0.00102078 0.000340448 0)
(0.000795224 0.0221381 -2.63063e-23)
(0.00801683 0.0200592 3.21953e-21)
(0.0141999 0.0159491 -3.21861e-21)
(0.018854 0.0103134 0)
(0.0215717 0.00374802 6.30473e-20)
(0.0220802 -0.00297198 4.72226e-20)
(0.0202384 -0.00907611 -1.45812e-19)
(0.0159649 -0.0138511 -9.3163e-20)
(0.00943005 -0.0171996 0)
(0.000428427 -0.0199277 3.52677e-21)
(-0.00783969 -0.0238722 7.69519e-20)
(-0.013622 -0.0221805 5.64944e-20)
(0.00132902 0.0183289 -1.90652e-23)
(0.00783601 0.0165177 2.89562e-21)
(0.013346 0.0129744 2.45599e-20)
(0.0174222 0.00812346 -1.04388e-20)
(0.0197562 0.00252589 -3.74889e-20)
(0.0202373 -0.00315848 1.24431e-19)
(0.018975 -0.00830316 8.59353e-20)
(0.0160759 -0.0125069 0)
(0.0115593 -0.0160234 0)
(0.00472597 -0.0196637 6.95799e-20)
(-0.00372031 -0.0227568 2.05909e-20)
(-0.012296 -0.0191451 6.72742e-20)
(0.000874931 0.0150941 -1.59918e-22)
(0.00661407 0.0135887 -8.79089e-21)
(0.0114925 0.0106196 -2.67163e-20)
(0.0151102 0.00653371 0)
(0.017196 0.00179988 2.87877e-20)
(0.0176855 -0.0030318 -1.49817e-19)
(0.016769 -0.00748672 7.02121e-20)
(0.0146827 -0.011301 0)
(0.0114099 -0.0147577 0)
(0.00597436 -0.0180268 0)
(-0.00166505 -0.0197644 0)
(-0.00965415 -0.0158301 -6.55413e-20)
(0.000382732 0.0123762 -2.39012e-23)
(0.00540045 0.0111407 5.41237e-21)
(0.00969537 0.00866146 2.43126e-21)
(0.0129204 0.00523812 -8.51587e-21)
(0.0148245 0.00125109 -2.01552e-20)
(0.0153183 -0.00284788 9.77227e-20)
(0.0145522 -0.00667607 -2.65473e-20)
(0.0127517 -0.00998846 0)
(0.0100124 -0.0129213 8.39842e-20)
(0.00551933 -0.015354 -5.9962e-20)
(-0.000801395 -0.016253 5.43464e-20)
(-0.00757952 -0.0127765 6.8814e-20)
(7.19735e-05 0.0100841 2.34878e-21)
(0.00448921 0.0090444 -6.622e-22)
(0.00829067 0.00697535 0)
(0.0111844 0.00410058 7.82399e-21)
(0.0129403 0.00074338 4.97717e-20)
(0.013449 -0.00272311 9.05865e-21)
(0.0128054 -0.00596521 -3.86924e-21)
(0.0111545 -0.0087495 8.08495e-20)
(0.00867473 -0.0110657 -6.20682e-20)
(0.00484198 -0.012795 5.75046e-20)
(-0.000282529 -0.0131944 -7.16227e-20)
(-0.00588138 -0.0102396 1.39319e-21)
(-0.000134534 0.00811809 6.34052e-22)
(0.00380341 0.00723147 -2.75903e-21)
(0.00721363 0.00550386 2.12344e-21)
(0.00982857 0.00307849 -7.26012e-21)
(0.0114606 0.000251204 -6.59575e-20)
(0.0119937 -0.00267456 -9.92095e-21)
(0.0114802 -0.00540791 -5.90551e-20)
(0.010002 -0.00772408 -1.35516e-19)
(0.00774215 -0.00955389 -1.9144e-20)
(0.00440952 -0.0107362 0)
(0.000171446 -0.0107284 0)
(-0.00449152 -0.00818533 -6.67401e-20)
(-0.000289119 0.00640245 6.45248e-30)
(0.00326268 0.00566119 4.4166e-21)
(0.00635002 0.00420494 2.09109e-20)
(0.00873715 0.00215802 0)
(0.0102708 -0.000220247 0)
(0.0108268 -0.00268033 1.71867e-20)
(0.0104443 -0.00497052 -1.72135e-20)
(0.00915564 -0.00687889 1.46172e-19)
(0.0071338 -0.00830226 8.99683e-20)
(0.00421598 -0.00905326 -3.53063e-20)
(0.00063197 -0.00873863 -1.19374e-19)
(-0.00329488 -0.00649158 -1.33306e-19)
(-0.000391823 0.00489381 -1.0087e-21)
(0.00284225 0.0042769 -8.76138e-21)
(0.00566409 0.00304432 -3.44896e-20)
(0.00786923 0.00132793 4.63463e-20)
(0.00931955 -0.000671752 4.77821e-20)
(0.00989863 -0.00272847 2.36761e-20)
(0.00963217 -0.00462835 -1.62726e-20)
(0.00852589 -0.00618066 -7.02217e-20)
(0.00674912 -0.00725199 -2.08503e-19)
(0.00418948 -0.00766191 -1.36443e-19)
(0.00111288 -0.00712206 -8.21385e-23)
(-0.00225087 -0.00508773 -9.10208e-22)
(-0.000411671 0.00355051 1.55586e-21)
(0.00256466 0.00303266 5.92139e-21)
(0.00517126 0.00199393 1.75273e-20)
(0.00722586 0.000556826 -8.33177e-20)
(0.00860644 -0.00111577 -5.28349e-20)
(0.00920353 -0.00282222 -7.05578e-21)
(0.00903231 -0.00437916 6.37259e-20)
(0.00809258 -0.00560836 0)
(0.0065385 -0.00637528 1.36838e-21)
(0.00428977 -0.00650568 2.65378e-19)
(0.00161807 -0.00578655 1.46271e-19)
(-0.00131491 -0.00388605 -1.67765e-20)
(-0.000281565 0.00233889 1.52239e-21)
(0.00248556 0.00189796 -7.53485e-21)
(0.00491213 0.00101863 1.83209e-20)
(0.00683618 -0.000181736 4.3151e-20)
(0.0081479 -0.00156929 4.38337e-20)
(0.0087451 -0.00296724 2.16146e-20)
(0.0086394 -0.00421489 8.8587e-23)
(0.00783071 -0.0051479 1.11796e-19)
(0.00645801 -0.00563941 2.75434e-19)
(0.00446886 -0.00552269 -1.45246e-19)
(0.00211736 -0.00464689 0)
(-0.000472846 -0.00282649 2.50878e-19)
(0.000384956 0.00124429 -1.48589e-21)
(0.00293586 0.000841713 9.37199e-21)
(0.005157 8.44538e-05 -1.44593e-20)
(0.00690143 -0.000919846 5.64436e-21)
(0.00807027 -0.00205885 -1.0386e-19)
(0.00857311 -0.00317821 -5.50083e-20)
(0.00843239 -0.00412034 -5.97368e-20)
(0.00765622 -0.00474557 -1.243e-19)
(0.0063703 -0.00494703 -1.26036e-19)
(0.00456678 -0.00458334 0)
(0.00247653 -0.00357403 0)
(0.000226406 -0.00185659 -1.22683e-19)
(0.00302116 0.000182344 1.43618e-21)
(0.00483637 -0.000243775 -2.30453e-20)
(0.00630734 -0.000870618 -1.38385e-20)
(0.0073292 -0.00161112 -3.97061e-20)
(0.00784576 -0.0023673 4.73622e-20)
(0.0078216 -0.00302892 1.39938e-20)
(0.00729813 -0.00347543 -1.3805e-20)
(0.00632341 -0.00362226 1.50775e-20)
(0.00503688 -0.00342766 -1.50878e-20)
(0.00352528 -0.00285796 0)
(0.00198447 -0.00195842 0)
(0.000485269 -0.000823574 -1.19444e-19)
(-0.0446195 -0.0223852 0)
(-0.037173 0.00467885 -4.003e-20)
(-0.0257604 0.0153537 9.88375e-21)
(-0.021455 0.0186098 0)
(-0.0174268 0.0225059 0)
(-0.0117254 0.0259756 1.51891e-20)
(-0.0049469 0.0276542 2.35766e-20)
(0.00222007 0.0271936 -7.33039e-21)
(0.00910658 0.024528 2.70949e-20)
(0.0150358 0.0199104 0)
(0.0194361 0.0137744 7.65145e-21)
(0.0218709 0.006634 5.03329e-22)
(-0.0344202 -0.016835 0)
(-0.0317012 0.00360987 0)
(-0.0235127 0.0122254 -4.51966e-20)
(-0.0194602 0.0160322 0)
(-0.0155058 0.0198317 -1.36656e-20)
(-0.0104733 0.0228884 2.7639e-20)
(-0.0046663 0.0243188 -6.70106e-20)
(0.00141282 0.0238962 -6.05713e-21)
(0.00725334 0.0215448 6.03628e-21)
(0.0123019 0.0174188 1.7071e-20)
(0.0160568 0.0118702 0)
(0.0181263 0.00538664 -4.89957e-22)
(-0.0257705 -0.0127343 0)
(-0.0257532 0.00234276 -1.06126e-20)
(-0.0206526 0.00949186 6.61981e-20)
(-0.0173543 0.0137942 -1.15989e-20)
(-0.0137799 0.0174881 0)
(-0.00939606 0.0202449 -3.77964e-20)
(-0.0044188 0.0214911 8.77923e-20)
(0.000752498 0.0211131 0)
(0.00570209 0.0190731 0)
(0.00997201 0.0154967 -1.50306e-20)
(0.0131466 0.0106695 2.93053e-21)
(0.0148984 0.00500316 2.16371e-22)
(-0.0196372 -0.0100317 0)
(-0.0205967 0.00132646 0)
(-0.0177836 0.00756929 -4.41171e-20)
(-0.0152976 0.0120268 1.17257e-20)
(-0.012225 0.01554 -1.17778e-20)
(-0.00846406 0.018032 1.07969e-19)
(-0.00421065 0.0191278 -1.41476e-20)
(0.00019598 0.0187773 2.53775e-20)
(0.00440531 0.0169769 -2.2289e-20)
(0.00802609 0.013849 1.3149e-20)
(0.0107153 0.00964886 -4.39507e-21)
(0.0121977 0.00472694 -2.10555e-22)
(-0.0150066 -0.00769245 0)
(-0.0165045 0.00094756 4.20902e-20)
(-0.0151651 0.00637394 4.29698e-20)
(-0.0133855 0.0106963 0)
(-0.0108357 0.0139609 -3.35242e-20)
(-0.00765765 0.0162033 -6.80246e-20)
(-0.0040428 0.0171692 -6.95083e-20)
(-0.000290868 0.0168377 1.2665e-20)
(0.00329297 0.0152235 1.69383e-20)
(0.00637265 0.0124467 -1.28015e-20)
(0.0086594 0.00874153 0)
(0.00992096 0.004418 0)
(-0.0116267 -0.00583456 0)
(-0.0133132 0.000967023 -4.10729e-20)
(-0.0128786 0.00569511 1.0613e-20)
(-0.0116656 0.00972141 -1.06374e-20)
(-0.00960873 0.0127025 4.35523e-20)
(-0.00696128 0.0147092 1.02634e-20)
(-0.00390964 0.0155563 3.04019e-20)
(-0.00072414 0.0152365 -7.56696e-20)
(0.0023228 0.0137723 4.08898e-21)
(0.00494314 0.0112791 -1.06027e-21)
(0.00689001 0.00797041 1.06108e-21)
(0.00796787 0.00412331 0)
(-0.00900385 -0.00426214 0)
(-0.0107883 0.00123653 -8.15778e-20)
(-0.0109153 0.00536908 0)
(-0.0101527 0.00903175 -4.11797e-20)
(-0.00853989 0.011722 3.06791e-20)
(-0.00636565 0.0135081 5.93469e-20)
(-0.00380864 0.0142415 -5.23855e-21)
(-0.00111628 0.0139223 2.95915e-20)
(0.00146768 0.0125769 0)
(0.00369432 0.0103146 -9.5182e-22)
(0.0053501 0.00732903 9.52642e-22)
(0.00627066 0.00386837 0)
(-0.00691437 -0.00290753 0)
(-0.00874918 0.00165276 -1.0198e-20)
(-0.00924091 0.00528414 9.97946e-21)
(-0.00884206 0.00857449 -3.9493e-20)
(-0.00762097 0.0109829 -7.89123e-20)
(-0.00586436 0.0125628 -2.92849e-20)
(-0.00374147 0.0131841 -9.1635e-21)
(-0.00148084 0.0128509 -3.43797e-20)
(0.000704105 0.0115933 3.55237e-21)
(0.00259192 0.00951294 -9.83409e-21)
(0.00399665 0.00678717 8.67929e-22)
(0.00478 0.00363938 0)
(-0.00519254 -0.00171294 -7.81166e-20)
(-0.0070617 0.00214982 7.78971e-20)
(-0.00780707 0.00535981 -6.79886e-20)
(-0.00771019 0.00829937 -9.20288e-21)
(-0.00683474 0.0104431 3.81735e-20)
(-0.00544699 0.0118283 8.76398e-21)
(-0.00370646 0.012336 -8.75298e-21)
(-0.00182295 0.0119714 6.96109e-22)
(1.29224e-05 0.0107666 0)
(0.00160578 0.008821 8.74333e-21)
(0.00279298 0.006296 0)
(0.00345524 0.0033948 0)
(-0.00372828 -0.000652166 7.62918e-20)
(-0.00561929 0.00266284 -8.55316e-20)
(-0.00655229 0.00551666 8.52894e-20)
(-0.00671576 0.0081358 7.5225e-20)
(-0.00614924 0.0100329 8.95908e-21)
(-0.00508736 0.0112288 3.43587e-20)
(-0.00368661 0.0116126 -3.67737e-20)
(-0.00213561 0.011195 2.16127e-20)
(-0.00061016 0.0100075 3.20682e-21)
(0.000720691 0.00814836 8.01046e-21)
(0.00171446 0.00576917 -1.96287e-21)
(0.00226629 0.00305665 0)
(-0.00244676 0.0002412 0)
(-0.00430473 0.00305803 7.42657e-20)
(-0.00535524 0.00556986 -8.28676e-20)
(-0.00572446 0.00784824 1.8169e-20)
(-0.00542048 0.00946539 -1.76835e-20)
(-0.00464446 0.0104239 -3.34847e-20)
(-0.00354668 0.0106281 4.31525e-20)
(-0.00230084 0.0100935 -3.65873e-21)
(-0.00106504 0.00886246 0)
(9.55355e-06 0.0070348 -7.82157e-21)
(0.000800745 0.00475593 5.67246e-21)
(0.00122187 0.0022002 0)
(-0.00114438 0.000651916 -7.20914e-20)
(-0.00245338 0.00253682 7.19257e-20)
(-0.00327617 0.00420908 7.15569e-20)
(-0.00361858 0.00562974 0)
(-0.00347527 0.00651386 -6.88652e-20)
(-0.00299088 0.00685307 -5.77173e-20)
(-0.00228634 0.00659957 2.23189e-20)
(-0.00150215 0.00579962 -2.98535e-21)
(-0.000757455 0.00452203 2.98774e-21)
(-0.000155872 0.00286643 0)
(0.000225875 0.000957986 -2.11979e-23)
(0.000340922 -0.00106522 -1.91045e-22)
)
;

boundaryField
{
    rotor
    {
        type            movingWallVelocity;
        value           nonuniform 0();
    }
    stator
    {
        type            movingWallVelocity;
        value           nonuniform List<vector> 
96
(
(3.26187e-18 9.96398e-17 2.64027e-36)
(0 0 0)
(-8.46966e-17 -5.13e-16 0)
(3.52934e-16 1.51365e-15 -1.99493e-16)
(-2.21665e-16 -7.30731e-16 0)
(-3.9605e-16 -1.05228e-15 1.93339e-32)
(2.35207e-33 -1.06571e-33 1.99493e-16)
(-6.6349e-16 -1.2413e-15 0)
(1.43136e-15 2.30181e-15 0)
(0 0 0)
(-1.0039e-15 -1.22326e-15 -1.99493e-16)
(1.59253e-15 1.70033e-15 -2.82432e-32)
(-1.59253e-15 -1.49157e-15 -1.99493e-16)
(-2.78854e-15 -2.2885e-15 -3.98986e-16)
(0 0 0)
(-2.80453e-16 -1.74397e-16 -1.99493e-16)
(0 0 -1.99493e-16)
(1.1999e-15 5.43666e-16 0)
(1.39792e-15 5.2614e-16 -3.98986e-16)
(7.30731e-16 2.21665e-16 0)
(5.09577e-17 1.18817e-17 -1.99493e-16)
(-5.13e-16 -8.46966e-17 -1.99493e-16)
(0 0 0)
(-9.48002e-18 -3.10344e-19 -3.98986e-16)
(-9.96398e-17 3.26187e-18 2.64027e-36)
(-3.11354e-16 3.06656e-17 1.99493e-16)
(0 0 0)
(0 0 0)
(-7.30731e-16 2.21665e-16 -1.99493e-16)
(0 0 0)
(1.1999e-15 -5.43666e-16 0)
(2.56828e-15 -1.37278e-15 -1.99493e-16)
(0 0 0)
(1.51125e-15 -1.08295e-15 -1.99493e-16)
(-1.9073e-15 1.56528e-15 0)
(-1.07797e-16 1.00963e-16 -1.99493e-16)
(1.59253e-15 -1.70033e-15 2.82432e-32)
(-1.0039e-15 1.22326e-15 -1.99493e-16)
(0 0 0)
(-1.74397e-16 2.80453e-16 0)
(-6.6349e-16 1.2413e-15 -9.73809e-33)
(5.62822e-17 -1.24217e-16 4.61588e-32)
(1.3009e-16 -3.4564e-16 -1.99493e-16)
(4.73004e-17 -1.55928e-16 0)
(3.52934e-16 -1.51365e-15 -1.99493e-16)
(4.35533e-17 -2.63799e-16 0)
(0 0 0)
(3.26187e-18 -9.96398e-17 -2.64027e-36)
(-1.59595e-15 1.59595e-15 0)
(-7.97973e-16 7.97973e-16 -1.99493e-16)
(-1.59595e-15 1.59595e-15 0)
(0 0 -1.99493e-16)
(-7.97973e-16 7.97973e-16 -1.99493e-16)
(0 0 -1.99493e-16)
(-1.59595e-15 1.59595e-15 -1.99493e-16)
(-1.59595e-15 1.59595e-15 0)
(-1.59595e-15 1.59595e-15 -1.99493e-16)
(0 0 -1.99493e-16)
(0 0 -1.99493e-16)
(0 0 -1.99493e-16)
(0 0 0)
(7.97973e-16 -7.97973e-16 0)
(-7.97973e-16 7.97973e-16 -1.99493e-16)
(7.97973e-16 -7.97973e-16 0)
(0 0 -1.99493e-16)
(7.97973e-16 -7.97973e-16 0)
(7.97973e-16 -7.97973e-16 0)
(0 0 0)
(0 0 -1.99493e-16)
(0 0 -1.99493e-16)
(0 0 0)
(0 0 0)
(0 0 0)
(-7.97973e-16 -7.97973e-16 0)
(-1.59595e-15 -1.59595e-15 0)
(0 0 0)
(-7.97973e-16 -7.97973e-16 0)
(7.97973e-16 7.97973e-16 -1.99493e-16)
(-1.59595e-15 -1.59595e-15 0)
(-1.59595e-15 -1.59595e-15 0)
(0 0 0)
(0 0 -1.99493e-16)
(0 0 0)
(0 0 0)
(-1.59595e-15 -1.59595e-15 0)
(-7.97973e-16 -7.97973e-16 -1.99493e-16)
(-1.59595e-15 -1.59595e-15 0)
(0 0 -1.99493e-16)
(-7.97973e-16 -7.97973e-16 -1.99493e-16)
(0 0 -1.99493e-16)
(-1.59595e-15 -1.59595e-15 -1.99493e-16)
(-1.59595e-15 -1.59595e-15 0)
(-1.59595e-15 -1.59595e-15 -1.99493e-16)