/*--------------------------------*- C++ -*----------------------------------*\
| =========                 |                                                 |
| \\      /  F ield         | OpenFOAM: The Open Source CFD Toolbox           |
|  \\    /   O peration     | Version:  v1806                                 |
|   \\  /    A nd           | Web:      www.OpenFOAM.com                      |
|    \\/     M anipulation  |                                                 |
\*---------------------------------------------------------------------------*/
FoamFile
{
    version     2.0;
    format      ascii;
    class       surfaceVectorField;
    location    "1";
    object      Uf;
}
// * * * * * * * * * * * * * * * * * * * * * * * * * * * * * * * * * * * * * //

dimensions      [0 1 -1 0 0 0 0];


internalField   nonuniform List<vector> 
1460
(
(0.0429346 0.0199414 -3.36675e-21)
(0.0404096 0.0222055 9.37486e-22)
(0.0421216 0.0326234 1.70618e-21)
(0.0393727 0.00874827 -1.8816e-20)
(0.0387503 0.0111762 -6.31296e-21)
(0.0325468 -5.35687e-05 -1.50332e-20)
(0.0337141 0.00147025 -1.63841e-21)
(0.0232797 -0.00526359 6.37359e-20)
(0.0260438 -0.00548753 0)
(0.0129144 -0.00534354 8.57016e-20)
(0.0164593 -0.00875493 2.65975e-20)
(0.00303564 -0.000890863 -5.72971e-20)
(0.00612899 -0.00743792 7.02361e-20)
(-0.00506412 0.00700166 -7.91482e-20)
(-0.00304056 -0.00214601 -5.21758e-20)
(-0.0114069 0.0167576 -4.44656e-20)
(-0.0105467 0.00582757 1.92587e-21)
(-0.0166772 0.0272735 -3.04718e-20)
(-0.016853 0.0153967 -2.47547e-20)
(-0.0211564 0.0390357 -7.97509e-22)
(-0.0212438 0.0265016 1.40872e-20)
(-0.025755 0.0499264 -3.34829e-20)
(-0.0250051 0.0396487 -1.37895e-20)
(-0.0281661 0.0526765 -4.15912e-20)
(0.0360038 0.0124289 -1.68913e-21)
(0.0341644 0.0131489 5.25517e-22)
(0.0359397 0.0222774 -7.54362e-23)
(0.0327229 0.00314469 1.07887e-20)
(0.0322466 0.00402761 6.37535e-22)
(0.0267893 -0.00456793 1.35857e-20)
(0.0275167 -0.00430133 3.05501e-21)
(0.0188017 -0.00958651 -3.78157e-20)
(0.0206991 -0.0105993 -7.68616e-21)
(0.00945918 -0.0113065 1.05861e-20)
(0.0120774 -0.014151 1.46754e-20)
(0.000101976 -0.00908186 7.54125e-20)
(0.00280268 -0.0142194 2.04439e-20)
(-0.00833645 -0.00366944 2.83412e-20)
(-0.00603655 -0.0108898 8.39562e-20)
(-0.015548 0.00420777 2.20719e-20)
(-0.0136972 -0.00460086 -1.56465e-20)
(-0.0208243 0.0141584 2.01419e-20)
(-0.0198046 0.00419304 2.26617e-20)
(-0.02401 0.0269125 0)
(-0.0224994 0.0159988 3.29002e-21)
(-0.0261933 0.042519 -2.182e-20)
(-0.0252812 0.0292386 5.00448e-20)
(-0.0241783 0.0489231 4.33675e-21)
(0.0301988 0.00403126 3.19323e-21)
(0.0288989 0.00537462 0)
(0.0307651 0.0126403 0)
(0.0267516 -0.004045 -7.71106e-21)
(0.0266852 -0.00283335 -1.92419e-21)
(0.0211165 -0.0108396 -1.86401e-20)
(0.0220742 -0.0101106 -1.09716e-20)
(0.0137121 -0.0156973 4.46427e-20)
(0.0156872 -0.0156973 -3.06422e-20)
(0.00518539 -0.0178069 2.55059e-20)
(0.00785648 -0.0190835 5.34214e-20)
(-0.00346283 -0.0166972 2.71288e-20)
(-0.000483231 -0.0196469 -4.30623e-20)
(-0.011349 -0.0123608 3.94275e-20)
(-0.00843234 -0.0171532 -1.21366e-20)
(-0.017674 -0.00491058 -1.55384e-20)
(-0.0150613 -0.0115527 -1.27837e-21)
(-0.0212895 0.00547413 4.67737e-21)
(-0.0196372 -0.00310355 2.42095e-21)
(-0.022895 0.0183738 5.49303e-20)
(-0.0209086 0.00877184 3.3317e-21)
(-0.0226438 0.0348943 7.16234e-20)
(-0.0234586 0.0197203 6.32267e-20)
(-0.0188382 0.039803 1.36519e-20)
(0.0251762 -0.00203269 -5.16906e-21)
(0.0261371 0.00601393 0)
(0.0242249 0.000615983 4.23531e-22)
(0.0217514 -0.00938997 -5.16906e-21)
(0.0219805 -0.00692006 -2.88656e-22)
(0.0163854 -0.0154618 -2.30007e-20)
(0.0176485 -0.0133615 0)
(0.00956516 -0.0197487 -2.30007e-20)
(0.0117997 -0.0182733 -1.06399e-21)
(0.0019301 -0.0216711 -1.45255e-20)
(0.00483477 -0.0212328 6.70218e-21)
(-0.00564578 -0.0208073 -8.28639e-20)
(-0.0024059 -0.0218012 2.30492e-20)
(-0.0122425 -0.0168762 -5.40598e-20)
(-0.00908758 -0.0197535 -8.47124e-20)
(-0.0170584 -0.00986401 1.66451e-20)
(-0.0144033 -0.0149431 1.67442e-20)
(-0.0197022 -0.000114489 0)
(-0.0179251 -0.00760002 0)
(-0.0214566 0.0110066 8.81937e-21)
(-0.0198414 0.00261744 -1.05754e-20)
(-0.0205543 0.0236837 4.84857e-21)
(-0.022972 0.0112034 -1.12759e-20)
(-0.018139 0.0223444 -7.82937e-21)
(0.0240671 -0.0421851 -2.30511e-21)
(0.0270464 -0.0516386 3.17736e-21)
(0.00559437 -0.0401418 -4.61284e-21)
(0.0146932 -0.0339454 -4.93555e-21)
(-0.0130562 -0.0414102 -4.10154e-20)
(-0.0063759 -0.0355508 4.95019e-21)
(-0.0278674 -0.0365169 -1.27991e-20)
(-0.0217177 -0.0359651 -2.69414e-20)
(-0.039098 -0.0268565 -1.30459e-20)
(-0.0328985 -0.0296745 2.26905e-20)
(-0.046731 -0.0149611 -6.12607e-20)
(-0.0412083 -0.0197919 -3.34187e-20)
(-0.0510173 -0.00279518 -2.31108e-20)
(-0.0460812 -0.00836197 -1.74889e-20)
(-0.0528074 0.00846584 -5.52815e-21)
(-0.0481425 0.00299306 -1.98593e-20)
(-0.0525868 0.0187279 0)
(-0.0480638 0.013483 -4.83047e-21)
(-0.0497491 0.0282352 -4.32313e-21)
(-0.045915 0.0229323 7.78814e-21)
(-0.0433844 0.0367057 -8.22395e-22)
(-0.0411784 0.0312211 -7.82376e-21)
(-0.0330688 0.037873 4.54189e-21)
(-0.0324011 0.0424289 2.65921e-21)
(0.0196347 -0.0438695 -5.21949e-21)
(0.0217587 -0.0585929 -1.17069e-20)
(0.00248309 -0.0322236 0)
(0.00924832 -0.0339959 8.34327e-21)
(-0.0136208 -0.0309615 1.69356e-20)
(-0.0094108 -0.0286668 4.14849e-21)
(-0.0255034 -0.0291391 8.52237e-21)
(-0.0210561 -0.0290632 2.49076e-20)
(-0.0343457 -0.0224554 1.4706e-21)
(-0.0295021 -0.0246755 2.14502e-21)
(-0.0402238 -0.0128051 1.09739e-20)
(-0.0360003 -0.016533 1.10443e-20)
(-0.0431156 -0.00206896 -1.43902e-20)
(-0.0395661 -0.00661305 4.55208e-21)
(-0.0434581 0.00842697 -1.92628e-20)
(-0.0404129 0.0036191 -3.69772e-21)
(-0.0415757 0.0179047 2.97753e-21)
(-0.0388767 0.0131592 -6.00933e-22)
(-0.0375733 0.0260038 4.34533e-21)
(-0.0353196 0.0214671 -2.36119e-23)
(-0.031285 0.0323906 -2.5591e-21)
(-0.0298265 0.0281723 -5.67572e-22)
(-0.0223148 0.0328153 1.09905e-22)
(-0.0224483 0.0361524 4.55664e-22)
(0.0134065 -0.0490102 1.10155e-20)
(0.0185312 -0.0615178 9.32644e-21)
(-0.00335868 -0.0322058 9.34499e-21)
(0.00241743 -0.0380359 4.61133e-22)
(-0.0158789 -0.0267694 1.20894e-20)
(-0.0135169 -0.0267553 -1.90544e-21)
(-0.0240886 -0.0245349 1.59623e-20)
(-0.0208551 -0.0249785 6.83686e-21)
(-0.030557 -0.018916 9.58984e-21)
(-0.0266775 -0.0211395 -1.332e-20)
(-0.0348886 -0.0105893 4.58146e-21)
(-0.0316019 -0.0142131 -8.3116e-21)
(-0.0365562 -0.0012442 1.43636e-20)
(-0.0341218 -0.00563811 2.88542e-20)
(-0.0356826 0.00802152 1.42198e-20)
(-0.0341117 0.00338961 9.9492e-21)
(-0.0326243 0.0164236 -3.33866e-21)
(-0.0317216 0.0119138 1.81463e-20)
(-0.02766 0.0233739 -4.81715e-21)
(-0.027324 0.01924 -7.70683e-21)
(-0.0209808 0.0283958 2.00089e-21)
(-0.0212395 0.0248552 -9.97062e-22)
(-0.0137651 0.028308 -1.02778e-21)
(-0.0128191 0.0308845 -3.78621e-22)
(0.00969139 -0.0489284 -5.29719e-21)
(0.0221846 -0.0548418 2.48568e-20)
(-0.00895396 -0.0331728 -1.81751e-20)
(-0.00252078 -0.0390188 -3.52321e-20)
(-0.0178682 -0.0249565 -6.63441e-21)
(-0.0152073 -0.0264009 2.11541e-20)
(-0.0228049 -0.0215949 -2.35481e-20)
(-0.0196055 -0.0225995 -1.13994e-21)
(-0.0273736 -0.0165118 -3.1475e-20)
(-0.023959 -0.0186322 6.45374e-21)
(-0.030559 -0.00933161 1.63574e-20)
(-0.0278429 -0.0125434 -8.59731e-22)
(-0.0314982 -0.00118654 2.43951e-20)
(-0.0297472 -0.0051796 1.27061e-21)
(-0.0300318 0.00700178 1.38845e-20)
(-0.029371 0.0026194 -1.03044e-20)
(-0.0263854 0.0144247 1.38845e-20)
(-0.0267161 0.0100757 -3.09689e-21)
(-0.0209169 0.0204392 -3.88096e-21)
(-0.0220803 0.0164949 0)
(-0.0140145 0.02454 -4.01203e-21)
(-0.0158664 0.0213012 -1.93049e-23)
(-0.00613596 0.0262712 3.0097e-22)
(-0.00854243 0.0240425 -2.49761e-22)
(-0.0196088 0.0433657 -8.41525e-22)
(-0.0221339 0.0407282 -1.39807e-21)
(-0.00832422 0.0397771 -1.31343e-20)
(-0.0108767 0.0390975 5.36235e-22)
(0.00041398 0.0328286 7.59168e-21)
(-0.00123543 0.0340608 -7.85644e-22)
(0.00549225 0.0234088 2.0726e-20)
(0.00572417 0.0262381 2.08642e-20)
(0.00545306 0.0129431 3.46881e-20)
(0.00888835 0.0165206 4.85502e-20)
(0.000903331 0.00303313 4.08763e-20)
(0.0074839 0.00612999 7.30197e-20)
(-0.00705149 -0.00505949 -9.69859e-20)
(0.00212609 -0.00304376 1.23702e-20)
(-0.0168325 -0.0113906 -1.2061e-19)
(-0.00588344 -0.0105399 -1.24238e-19)
(-0.0273306 -0.0166737 3.25995e-20)
(-0.0154541 -0.0168621 4.35748e-20)
(-0.0390464 -0.0211855 6.55256e-20)
(-0.0265339 -0.021283 -1.6555e-20)
(-0.049904 -0.02584 3.50233e-20)
(-0.0396404 -0.0250719 1.4045e-20)
(-0.0526326 -0.028299 -1.62282e-21)
(-0.0515251 -0.0289498 2.05388e-20)
(-0.0124161 0.0363251 -2.18471e-22)
(-0.0132442 0.0343804 -1.43808e-22)
(-0.00300784 0.0330891 1.33531e-20)
(-0.00394276 0.0325437 5.50576e-23)
(0.00471958 0.0270892 1.28133e-20)
(0.00435129 0.0278777 1.28955e-20)
(0.00972114 0.0189601 4.88762e-20)
(0.0107424 0.0209063 2.66719e-20)
(0.0113778 0.00951858 8.75281e-20)
(0.0142452 0.0121716 3.73615e-21)
(0.00909019 0.000120556 4.36038e-20)
(0.0142703 0.00283113 -8.40223e-21)
(0.00363964 -0.00833328 -1.4978e-20)
(0.0109012 -0.00603498 6.80023e-20)
(-0.00424747 -0.015562 3.97482e-20)
(0.00459307 -0.0137157 5.09747e-20)
(-0.014185 -0.0208687 -3.15315e-21)
(-0.00420076 -0.0198636 1.24818e-19)
(-0.0269116 -0.0240887 -6.35076e-20)
(-0.0160043 -0.0225888 -1.29501e-19)
(-0.0424946 -0.0263037 -2.2988e-20)
(-0.0292232 -0.0253838 1.16872e-20)
(-0.048878 -0.0243131 2.86363e-20)
(-0.054061 -0.0254707 -2.2988e-20)
(-0.00408325 0.0303753 1.15185e-22)
(-0.00544869 0.029041 8.47135e-22)
(0.00405812 0.0270508 -4.91392e-22)
(0.00280478 0.0269609 -9.43001e-22)
(0.0109048 0.0213895 2.6844e-20)
(0.0101253 0.0224063 0)
(0.01579 0.0138639 -1.89175e-20)
(0.0158174 0.0158679 -5.20067e-21)
(0.0178796 0.0052507 -9.35443e-20)
(0.0191884 0.00794439 -4.70747e-20)
(0.0167416 -0.00344779 1.37331e-20)
(0.0197337 -0.000462466 -3.56472e-20)
(0.0123887 -0.0113694 1.34374e-19)
(0.0172187 -0.00845481 6.25786e-20)
(0.00493179 -0.0177326 1.36669e-19)
(0.0116013 -0.0151179 5.01853e-20)
(-0.00545908 -0.0213819 -1.51953e-21)
(0.00313827 -0.019731 1.90309e-20)
(-0.0183661 -0.0229979 -5.29514e-20)
(-0.00875635 -0.021013 -6.56986e-20)
(-0.034876 -0.0227633 5.87331e-20)
(-0.0197099 -0.023571 -2.76225e-20)
(-0.0397609 -0.0189892 -7.98606e-21)
(-0.0554799 -0.0190758 4.69705e-20)
(0.00194345 0.0253845 9.10729e-23)
(-0.000712419 0.0243521 4.06909e-22)
(0.0093705 0.0220287 -4.51361e-22)
(0.00684169 0.0222255 1.14613e-21)
(0.0155471 0.0166133 -3.26528e-20)
(0.0133923 0.0179136 -1.59972e-21)
(0.0198707 0.00968644 -3.44048e-20)
(0.0183974 0.0119455 -3.28473e-20)
(0.0217927 0.00197514 9.72708e-21)
(0.0213631 0.00490262 3.02928e-20)
(0.020912 -0.00565593 1.15133e-20)
(0.0219232 -0.0024003 3.50308e-20)
(0.0169616 -0.0122964 -2.19061e-20)
(0.0198567 -0.00912721 -7.24717e-20)
(0.00992372 -0.0171426 -6.87316e-20)
(0.0150227 -0.0144712 -6.78977e-20)
(0.000147683 -0.0198019 -4.42948e-20)
(0.00764776 -0.0180175 -4.69319e-20)
(-0.0109954 -0.0215646 -3.73437e-20)
(-0.00260398 -0.0199354 2.29343e-21)
(-0.0236704 -0.0206816 -9.25688e-20)
(-0.0112137 -0.0230774 -8.37964e-21)
(-0.0494746 -0.0151906 -5.09545e-20)
(-0.0223532 -0.018268 -4.03074e-20)
(-0.0419945 -0.0241536 4.35966e-21)
(-0.0515476 -0.0271248 -5.36086e-22)
(-0.0398873 -0.00566471 4.64651e-21)
(-0.0337052 -0.0147846 4.92482e-21)
(-0.0411855 0.0129904 -4.90689e-21)
(-0.0353071 0.00632813 -4.93962e-21)
(-0.0363229 0.0277808 0)
(-0.0357703 0.0216577 -8.61002e-21)
(-0.0266921 0.0389965 5.48778e-20)
(-0.0295062 0.0328066 -8.98395e-22)
(-0.0148286 0.0466326 4.97797e-20)
(-0.0196493 0.0411052 4.45351e-20)
(-0.00268848 0.0509301 1.32489e-20)
(-0.0082503 0.0459791 1.56061e-20)
(0.00855413 0.0527579 1.75455e-20)
(0.00308743 0.0480649 -1.50275e-21)
(0.018807 0.0526039 -1.05903e-20)
(0.0135702 0.0480172 0)
(0.0282931 0.049848 -1.49212e-20)
(0.0230025 0.0458948 -4.68388e-21)
(0.0366276 0.043547 -3.04078e-21)
(0.0312234 0.0411853 -1.93644e-21)
(0.0377 0.0330484 7.05144e-22)
(-0.0437355 -0.0197152 0)
(-0.0585409 -0.0218308 0)
(-0.0320019 -0.00254068 0)
(-0.0338106 -0.00930999 8.34044e-21)
(-0.0307425 0.0135687 -8.66783e-21)
(-0.028433 0.0093815 -2.27863e-21)
(-0.0289589 0.0254289 -7.50267e-21)
(-0.0288776 0.0210127 -1.01402e-20)
(-0.0223004 0.0342549 -1.07637e-20)
(-0.0245168 0.0294254 6.96851e-21)
(-0.0126644 0.0401257 1.00597e-20)
(-0.0163942 0.0359054 -2.6136e-21)
(-0.00194575 0.0430286 1.71382e-21)
(-0.00649023 0.0394642 3.47605e-20)
(0.00853099 0.0433866 -1.9294e-20)
(0.00373192 0.0403183 -8.63781e-21)
(0.0179866 0.0415038 6.01715e-21)
(0.0132601 0.0387834 4.29682e-21)
(0.0260362 0.037461 8.3242e-21)
(0.021535 0.0351927 -1.90802e-21)
(0.0323218 0.0311015 1.91922e-21)
(0.0281573 0.0296288 7.73713e-23)
(0.0326606 0.022079 -6.01437e-22)
(-0.0489014 -0.0134646 8.39428e-21)
(-0.0614589 -0.0185906 1.89948e-21)
(-0.0320198 0.0033322 2.84454e-21)
(-0.0379012 -0.00244042 1.40244e-20)
(-0.0265667 0.0158493 -2.10895e-21)
(-0.0265551 0.0135205 -2.3075e-21)
(-0.0243643 0.02403 8.07577e-21)
(-0.0248084 0.0208284 -1.43469e-21)
(-0.0187691 0.0304765 1.63886e-20)
(-0.0209925 0.0266133 2.78967e-23)
(-0.0104579 0.0347937 2.26834e-20)
(-0.0140822 0.0315158 7.40766e-21)
(-0.00112452 0.0364475 2.34833e-20)
(-0.00551972 0.0340179 -1.044e-20)
(0.00812626 0.0355636 1.42215e-20)
(0.00350559 0.0339951 9.94543e-21)
(0.0164946 0.0324765 -3.36007e-21)
(0.0120122 0.0315845 -9.48146e-21)
(0.0233713 0.0274544 -1.00779e-20)
(0.0192887 0.0271484 -7.73208e-21)
(0.0282991 0.0207332 -2.39328e-21)
(0.0248229 0.0210144 -3.83556e-21)
(0.0281939 0.0135438 0)
(-0.0488389 -0.00970332 -4.26979e-21)
(-0.0547891 -0.0221743 1.92267e-21)
(-0.0330313 0.00897524 1.59263e-21)
(-0.0389283 0.00254562 -9.02242e-21)
(-0.0247844 0.0178687 0)
(-0.026248 0.0152425 4.91245e-21)
(-0.0214425 0.0227628 -8.00007e-21)
(-0.022453 0.0195898 0)
(-0.0163772 0.0273024 -8.38702e-21)
(-0.0185011 0.0239047 -8.04771e-21)
(-0.00920629 0.0304672 -2.54279e-20)
(-0.0124243 0.027763 6.82723e-21)
(-0.00107134 0.0313862 -2.4381e-20)
(-0.00507143 0.029647 -1.26093e-20)
(0.00709809 0.0298944 -1.39187e-20)
(0.00272529 0.0292509 -3.64337e-21)
(0.0144884 0.0262146 -1.39187e-20)
(0.0101627 0.026564 -2.41882e-22)
(0.0204441 0.0207217 -1.58782e-21)
(0.0165358 0.0218995 0)
(0.0244673 0.0138322 -1.58782e-21)
(0.0212765 0.0156782 2.32357e-21)
(0.0239609 0.00838108 2.50166e-22)
(0.0208988 -0.00468232 5.43667e-21)
(0.0201301 -0.00118208 2.34284e-23)
(0.0219321 0.0027664 6.77733e-22)
(0.0177433 -0.0113406 5.01061e-21)
(0.0181146 -0.00801119 5.03941e-21)
(0.0128998 -0.0166935 2.22856e-20)
(0.0142687 -0.0137429 1.34343e-20)
(0.00685896 -0.0203728 2.90279e-20)
(0.00911144 -0.0180354 1.72903e-20)
(0.000263507 -0.0219704 4.52796e-20)
(0.00310218 -0.02055 1.19228e-20)
(-0.0061069 -0.0212858 2.4383e-20)
(-0.00304581 -0.0210511 2.68088e-21)
(-0.0114988 -0.0181926 -1.46654e-20)
(-0.0086292 -0.0195188 -4.07621e-20)
(-0.0154835 -0.0126965 0)
(-0.0131237 -0.0159421 1.30387e-20)
(-0.0185225 -0.00496461 -1.06387e-20)
(-0.0165536 -0.010436 0)
(-0.0215141 0.00408895 -3.56074e-20)
(-0.0197976 -0.00249685 -1.06999e-20)
(-0.0221654 0.0115799 -2.70369e-20)
(-0.0234686 0.0059701 -2.71924e-20)
(-0.0210011 0.0132958 0)
(0.017274 -0.00479989 -4.14414e-22)
(0.0166368 -0.00122806 1.77437e-24)
(0.0181733 0.00187212 -6.59392e-22)
(0.0145431 -0.0108117 1.3512e-20)
(0.0149127 -0.00730124 5.20783e-21)
(0.0103603 -0.0155496 8.35896e-21)
(0.0116621 -0.0124055 -7.01909e-22)
(0.005181 -0.018725 -5.06571e-22)
(0.00725688 -0.0161974 -5.1817e-21)
(-0.000425481 -0.0201231 -3.04877e-20)
(0.00214369 -0.0183918 5.20016e-21)
(-0.00580423 -0.0197072 -6.08766e-20)
(-0.00306476 -0.0188816 6.57568e-20)
(-0.0104454 -0.0176015 -1.38141e-20)
(-0.00784544 -0.0178004 -8.39334e-20)
(-0.0142457 -0.0138242 1.31141e-20)
(-0.0118732 -0.0153066 1.3187e-20)
(-0.0177789 -0.00812002 0)
(-0.0153553 -0.0114273 1.07474e-20)
(-0.0208521 -0.000135132 0)
(-0.0188124 -0.00530719 -2.03939e-20)
(-0.0202381 0.0087147 0)
(-0.0212333 0.00271648 9.66172e-21)
(-0.0173908 0.0108987 0)
(0.0142205 -0.00397094 5.65777e-21)
(0.0136754 -0.000743524 2.28589e-23)
(0.014953 0.00191332 5.29016e-22)
(0.0119445 -0.00924861 -9.02561e-21)
(0.0122613 -0.00607702 1.47483e-21)
(0.00842355 -0.0134603 -1.44427e-20)
(0.00954586 -0.0105974 -3.28752e-21)
(0.00404097 -0.0162905 0)
(0.00583484 -0.0139723 -1.0604e-20)
(-0.000713866 -0.0175586 1.0253e-19)
(0.00151862 -0.0159517 1.35378e-20)
(-0.00532869 -0.0173212 4.5408e-20)
(-0.00290291 -0.016446 1.11425e-19)
(-0.00943027 -0.0157841 -5.79473e-20)
(-0.00701651 -0.0156144 1.76352e-20)
(-0.0130068 -0.0130321 1.08075e-20)
(-0.0105819 -0.0136758 1.0669e-20)
(-0.0163067 -0.00862162 -9.88983e-21)
(-0.0137347 -0.0107066 2.39789e-22)
(-0.0185826 -0.00182676 -9.07243e-21)
(-0.0165643 -0.00577932 -5.92935e-20)
(-0.0172432 0.00620691 9.71572e-21)
(-0.0178838 0.00116737 9.76797e-21)
(-0.0141955 0.00852641 0)
(0.0116601 -0.00309308 -4.24643e-21)
(0.0111779 -0.000329456 -4.11678e-22)
(0.0122496 0.00203562 -5.14822e-22)
(0.00977743 -0.00770012 7.45667e-21)
(0.0100285 -0.00501233 -3.85688e-21)
(0.0068244 -0.0114514 6.32186e-22)
(0.00774115 -0.00900662 4.87468e-22)
(0.00313618 -0.0140022 3.35392e-21)
(0.00462492 -0.0120261 3.57621e-21)
(-0.000883673 -0.0151768 2.15743e-20)
(0.000991238 -0.0138404 3.36721e-20)
(-0.00482369 -0.015019 8.54325e-20)
(-0.00275717 -0.0143403 -8.10459e-20)
(-0.00836279 -0.0136992 8.74957e-20)
(-0.00626351 -0.0136436 5.63452e-20)
(-0.0114252 -0.0113506 1.34534e-22)
(-0.00930413 -0.0119251 -3.88456e-20)
(-0.0140492 -0.00768024 -4.95677e-20)
(-0.0119038 -0.00933987 -1.07389e-20)
(-0.0155379 -0.00207709 -3.88844e-20)
(-0.0139591 -0.00521433 -2.12546e-21)
(-0.0140999 0.00459665 0)
(-0.014608 0.000477488 3.50327e-20)
(-0.0114263 0.00666267 0)
(0.00948916 -0.00241883 0)
(0.00906639 -6.25834e-05 0)
(0.00997061 0.00205131 0)
(0.00791013 -0.00654768 -1.09944e-20)
(0.00808277 -0.00420965 -1.0352e-21)
(0.00543185 -0.00987991 3.46669e-21)
(0.00617714 -0.00777087 -1.00155e-20)
(0.0023317 -0.0121748 3.442e-20)
(0.00355597 -0.0104936 1.0978e-20)
(-0.00106349 -0.0132887 -6.95781e-20)
(0.000485234 -0.0121683 -3.84008e-20)
(-0.00439672 -0.013197 -1.11789e-19)
(-0.00268393 -0.0126846 -4.59011e-20)
(-0.00738346 -0.0120195 -7.08136e-20)
(-0.00565225 -0.0121086 -3.04625e-20)
(-0.00988056 -0.00988317 -4.98881e-20)
(-0.00819328 -0.0105495 -1.18072e-20)
(-0.0118446 -0.00666584 3.78671e-20)
(-0.0102551 -0.00819273 9.15583e-21)
(-0.0127763 -0.0020448 7.30833e-20)
(-0.0116871 -0.00464084 2.89217e-20)
(-0.0114072 0.00338279 3.52162e-20)
(-0.0118825 1.67785e-05 1.71207e-21)
(-0.00915698 0.00514185 0)
(0.00761314 -0.00197633 -1.04045e-21)
(0.00723733 0.000124868 0)
(0.00801819 0.00201366 0)
(0.00628634 -0.0056519 -1.13543e-22)
(0.00639922 -0.00359269 -2.02392e-21)
(0.00420823 -0.0086359 -2.53459e-21)
(0.00481144 -0.00680613 2.02238e-21)
(0.00158662 -0.0107589 -6.28072e-20)
(0.00258636 -0.00927778 -3.59182e-21)
(-0.00127759 -0.0118198 -1.40656e-20)
(3.2291e-06 -0.0108417 -2.58863e-20)
(-0.00408844 -0.0118022 3.6318e-20)
(-0.00266978 -0.0113797 4.96533e-20)
(-0.00658983 -0.0107767 2.96737e-20)
(-0.00516859 -0.0109305 8.03291e-21)
(-0.00861674 -0.00884467 4.79239e-20)
(-0.00727237 -0.00955051 8.30662e-20)
(-0.0100669 -0.00598633 -3.20093e-22)
(-0.00888477 -0.00742274 -2.601e-20)
(-0.0105548 -0.00209749 -4.35112e-20)
(-0.00983799 -0.00431799 -9.2281e-21)
(-0.00922317 0.00238591 -3.43281e-20)
(-0.0096816 -0.000421427 -1.01297e-19)
(-0.0073015 0.00386516 0)
(0.00598077 -0.00163788 -9.83184e-22)
(0.00563158 0.000260014 0)
(0.00631833 0.00196956 0)
(0.0048692 -0.00491939 -7.95536e-23)
(0.00493827 -0.00311003 -1.91852e-21)
(0.00311294 -0.00765776 9.82393e-22)
(0.00359134 -0.00603513 -6.8533e-21)
(0.000903874 -0.00960765 3.36073e-20)
(0.00171681 -0.0083045 -3.14283e-21)
(-0.00150447 -0.0106293 3.8451e-20)
(-0.000453919 -0.0097788 9.88241e-21)
(-0.00386529 -0.0106939 2.22368e-20)
(-0.0027015 -0.0103371 1.25845e-20)
(-0.00594432 -0.00983029 6.12731e-20)
(-0.00478666 -0.0100096 -2.40944e-20)
(-0.00757043 -0.00811806 8.94118e-21)
(-0.00650575 -0.00881561 -2.34642e-20)
(-0.00861014 -0.00559449 -3.54311e-20)
(-0.00774377 -0.00692541 -6.90829e-20)
(-0.00875171 -0.00226531 -6.71297e-20)
(-0.00831913 -0.00419908 -8.25517e-21)
(-0.00743609 0.00150451 -6.71297e-20)
(-0.00789675 -0.000879352 -5.94824e-20)
(-0.00576873 0.00275943 0)
(0.0045458 -0.00136647 -9.35105e-22)
(0.00421226 0.00032573 0)
(0.00482234 0.00191288 0)
(0.00361067 -0.00436204 -8.88604e-21)
(0.00363823 -0.00275971 -9.39436e-22)
(0.00212778 -0.00688125 -1.10358e-20)
(0.00249374 -0.00544746 5.97179e-22)
(0.000274513 -0.00868794 -2.73817e-20)
(0.000924095 -0.00755476 -3.1725e-21)
(-0.00174692 -0.00968888 -1.59932e-20)
(-0.000900784 -0.00895213 -2.3615e-20)
(-0.00371143 -0.00981605 -3.32672e-20)
(-0.00277237 -0.00953032 1.56333e-20)
(-0.00541891 -0.00910033 -1.10088e-19)
(-0.00449379 -0.0093072 -4.94251e-20)
(-0.00669923 -0.00761369 -1.01985e-19)
(-0.00587635 -0.00828537 -3.59641e-20)
(-0.00739862 -0.00539767 -4.18308e-20)
(-0.00678979 -0.00662587 -2.49603e-20)
(-0.00727362 -0.00251877 6.09216e-22)
(-0.00705887 -0.0042293 -8.12251e-20)
(-0.0059654 0.000704916 8.24253e-21)
(-0.00643431 -0.00136291 7.18197e-20)
(-0.00447605 0.00177855 -6.26776e-20)
(0.00326312 -0.00121041 0)
(0.00293966 0.000272815 0)
(0.00349092 0.0018062 0)
(0.00247543 -0.00397062 8.59093e-21)
(0.00246327 -0.00257998 -2.77139e-21)
(0.00122656 -0.00630895 8.59093e-21)
(0.00148672 -0.00507134 1.67077e-20)
(-0.000323657 -0.00800666 5.55021e-22)
(0.000177989 -0.0070436 -2.86483e-21)
(-0.00200714 -0.00897441 8.18046e-21)
(-0.00134559 -0.00837057 3.18148e-20)
(-0.00362961 -0.00916511 3.26238e-22)
(-0.00289302 -0.00895622 -1.62678e-20)
(-0.00500876 -0.00858588 2.53678e-20)
(-0.00428938 -0.0088132 2.27891e-20)
(-0.00597625 -0.00729283 4.18661e-20)
(-0.0053652 -0.00793836 2.54565e-20)
(-0.00639055 -0.00535095 -6.45938e-20)
(-0.00599145 -0.00647823 7.25904e-20)
(-0.00604815 -0.00284189 -9.34274e-21)
(-0.00599857 -0.00436443 -1.82159e-20)
(-0.00472533 -4.14313e-05 9.19186e-22)
(-0.00520664 -0.00185828 7.20015e-20)
(-0.00335441 0.000897647 -1.98248e-21)
(0.00209858 -0.00122206 -2.78393e-21)
(0.00178043 -0.000121004 0)
(0.00229354 0.00157514 0)
(0.00142955 -0.00380597 5.33067e-21)
(0.0013619 -0.00276024 5.27249e-21)
(0.000381719 -0.00597088 5.2368e-21)
(0.000532749 -0.0050605 2.64514e-22)
(-0.000911411 -0.00757805 2.83919e-20)
(-0.000564387 -0.00688024 -2.89042e-21)
(-0.00230304 -0.0085202 7.61269e-21)
(-0.00182168 -0.00810119 3.47833e-20)
(-0.00361566 -0.00873747 6.85483e-21)
(-0.0030663 -0.00864376 -7.19798e-21)
(-0.00469429 -0.00825721 2.30794e-20)
(-0.00415816 -0.00851559 5.91702e-20)
(-0.00537817 -0.00712086 5.62493e-20)
(-0.00493449 -0.00772181 7.31137e-21)
(-0.00553728 -0.00540579 1.19555e-19)
(-0.00527951 -0.00639488 -1.25381e-20)
(-0.00500312 -0.00319691 6.3903e-20)
(-0.00503888 -0.00450392 2.15913e-21)
(-0.00364616 -0.000729456 6.93081e-20)
(-0.0040974 -0.00229157 7.89518e-21)
(-0.00233959 0.000126371 6.1717e-20)
(0.00102945 -0.00176221 8.10881e-21)
(0.000696232 -0.00175091 6.86902e-22)
(0.00122828 0.000821582 0)
(0.000440685 -0.00415977 1.93603e-22)
(0.000270832 -0.00391615 8.05568e-21)
(-0.000445544 -0.00612459 -7.91521e-21)
(-0.000420086 -0.005743 -7.94904e-21)
(-0.00152055 -0.00757344 3.2054e-21)
(-0.00129539 -0.00711405 -2.65884e-21)
(-0.00264753 -0.00839317 2.04457e-20)
(-0.002236 -0.00794215 5.8772e-21)
(-0.00367058 -0.00854884 4.53102e-20)
(-0.00310706 -0.00817865 4.99098e-20)
(-0.00444443 -0.00806707 4.34796e-20)
(-0.00380165 -0.00784249 -9.0773e-20)
(-0.00483229 -0.0069917 -6.20001e-20)
(-0.00418599 -0.00696674 1.51988e-20)
(-0.00472649 -0.00541525 -1.30847e-19)
(-0.00418519 -0.00568504 -1.76994e-20)
(-0.00400694 -0.00343365 -5.39043e-20)
(-0.0037108 -0.00403736 5.37802e-21)
(-0.00263992 -0.00127069 0)
(-0.0027457 -0.00223778 5.8953e-20)
(-0.00130719 -0.000383972 -5.83834e-20)
(-3.87728e-05 -0.00403256 6.75978e-22)
(0.000260652 -0.00210436 5.94328e-22)
(-0.000571276 -0.00566786 -1.38723e-23)
(-0.001261 -0.00691044 -2.67025e-21)
(-0.0020123 -0.00766722 -1.89705e-22)
(-0.0027193 -0.00789473 3.55932e-20)
(-0.00327191 -0.007608 -8.65696e-20)
(-0.00355984 -0.00683418 -1.19799e-19)
(-0.00351538 -0.00566486 5.99067e-20)
(-0.00311399 -0.0042393 1.1971e-19)
(-0.00235105 -0.00268158 1.19009e-19)
(-0.00133738 -0.00117471 5.72028e-22)
(0.00803629 -0.041699 -2.99165e-20)
(0.0194369 -0.0393196 -6.68631e-21)
(-0.0105031 -0.0319795 1.36813e-21)
(-0.00400073 -0.0346315 -1.73873e-21)
(-0.0171135 -0.0238406 2.74989e-20)
(-0.0136245 -0.0249435 2.70486e-21)
(-0.0206433 -0.0196007 2.95414e-20)
(-0.0172876 -0.0206729 0)
(-0.0243098 -0.0146969 3.714e-20)
(-0.0212198 -0.0165937 4.92874e-20)
(-0.0268743 -0.00843394 -1.57076e-20)
(-0.0245249 -0.0111854 1.44886e-20)
(-0.0275225 -0.00146161 -3.35491e-20)
(-0.0261023 -0.00487354 -4.97585e-20)
(-0.0259937 0.00557605 -2.7268e-20)
(-0.0256805 0.00176265 -9.26662e-21)
(-0.0223935 0.0120105 -1.68966e-20)
(-0.0231989 0.00814506 -1.69937e-20)
(-0.0170236 0.0172211 3.78281e-21)
(-0.0188475 0.0136691 0)
(-0.0103316 0.0206944 3.68464e-21)
(-0.0129992 0.0177907 3.80456e-21)
(-0.00616019 0.0200836 -1.8199e-22)
(-0.00289006 0.0220377 -1.11322e-22)
(0.0062089 -0.0334897 2.31546e-20)
(0.0145448 -0.0298311 0)
(-0.00833807 -0.0280386 -1.50106e-21)
(-0.00303825 -0.0286645 3.87581e-20)
(-0.014366 -0.0217575 -2.71295e-20)
(-0.0108202 -0.0222093 3.57916e-22)
(-0.0181231 -0.0176846 1.96893e-20)
(-0.014907 -0.0185591 0)
(-0.0214918 -0.0131292 2.6225e-20)
(-0.0187037 -0.014759 6.32067e-22)
(-0.0237044 -0.00767286 -1.97092e-20)
(-0.0216484 -0.0100172 1.934e-20)
(-0.0242239 -0.00171839 -2.55902e-20)
(-0.02301 -0.00460707 8.45268e-21)
(-0.0228534 0.00425329 1.00499e-21)
(-0.0226294 0.00103005 -3.73697e-21)
(-0.0196377 0.00972137 0)
(-0.0204559 0.00644457 -6.8913e-21)
(-0.0147994 0.0141651 0)
(-0.0166209 0.0111334 0)
(-0.00873846 0.0171229 -7.465e-23)
(-0.0114323 0.0146354 -2.2006e-21)
(-0.00534033 0.0165836 -4.70619e-23)
(-0.00200646 0.0182524 -8.41825e-23)
(0.0050131 -0.0259896 1.55614e-20)
(0.0112144 -0.0225204 0)
(-0.00624807 -0.0235457 4.14233e-20)
(-0.00190275 -0.0231109 -5.97047e-21)
(-0.011911 -0.0192719 2.77927e-20)
(-0.00852481 -0.0192978 -1.57889e-20)
(-0.0158596 -0.0157689 -1.93879e-20)
(-0.0129191 -0.0164378 0)
(-0.0190354 -0.0117347 -6.3602e-21)
(-0.0165579 -0.013099 -2.54315e-20)
(-0.0209971 -0.00701269 4.74391e-20)
(-0.0192132 -0.00900454 -5.96964e-21)
(-0.0214321 -0.00191921 3.0395e-20)
(-0.0204058 -0.00437433 5.77289e-20)
(-0.0202281 0.00315745 -1.18441e-20)
(-0.0200608 0.000426445 6.0044e-21)
(-0.0174267 0.0077897 -6.92981e-21)
(-0.0181587 0.00502426 -6.16476e-21)
(-0.0132135 0.0115483 -2.21289e-21)
(-0.0148177 0.0089954 6.71408e-22)
(-0.00793125 0.0140516 -2.17677e-21)
(-0.0103058 0.0119605 -5.76392e-22)
(-0.0050006 0.0136117 -2.08061e-22)
(-0.00204335 0.015019 -4.38396e-23)
(0.00426522 -0.0202535 -2.03891e-20)
(0.00872751 -0.0171782 5.13808e-21)
(-0.0046952 -0.019453 -6.43008e-20)
(-0.0011926 -0.0185064 -3.09237e-20)
(-0.0100589 -0.0167869 -4.39117e-20)
(-0.00697966 -0.0165312 -2.2756e-20)
(-0.0139994 -0.0139488 -5.97139e-21)
(-0.0113795 -0.0144258 5.45964e-21)
(-0.016975 -0.0104907 -2.51482e-20)
(-0.0147954 -0.0116093 2.18574e-20)
(-0.0187289 -0.00644253 3.9344e-21)
(-0.0171873 -0.00812739 -2.42422e-20)
(-0.0190928 -0.00208987 3.33554e-20)
(-0.018238 -0.00418091 -1.74712e-20)
(-0.0180136 0.00223786 1.16047e-20)
(-0.0179152 -8.96684e-05 1.06381e-20)
(-0.0155452 0.00617625 1.38808e-21)
(-0.0162227 0.00382362 8.71617e-21)
(-0.0118621 0.00936219 2.27492e-21)
(-0.0132782 0.00719653 -6.84622e-21)
(-0.00726648 0.0114813 1.36159e-21)
(-0.00932698 0.0097134 1.62827e-21)
(-0.00469463 0.0111142 -3.4726e-22)
(-0.00215295 0.0123061 -2.42463e-22)
(0.00332216 -0.0158519 -4.90604e-21)
(0.00670567 -0.013257 5.19109e-21)
(-0.00384791 -0.0160382 9.79832e-21)
(-0.000989124 -0.0148956 -1.57265e-20)
(-0.00877594 -0.0144942 2.56482e-20)
(-0.00604607 -0.0140696 2.66505e-20)
(-0.0125336 -0.0122803 3.3494e-20)
(-0.0102317 -0.0125923 5.51596e-21)
(-0.0152759 -0.00938583 2.30368e-20)
(-0.0133766 -0.0102886 1.17579e-20)
(-0.0168484 -0.00595317 -4.58017e-20)
(-0.0155228 -0.00736687 -2.65908e-20)
(-0.0171498 -0.00224468 -4.03346e-20)
(-0.0164467 -0.00402485 -2.51825e-20)
(-0.0161678 0.0014458 7.7394e-21)
(-0.0161375 -0.00054397 -2.34022e-21)
(-0.0139613 0.00480123 4.3742e-22)
(-0.014611 0.00278667 1.00405e-20)
(-0.0106979 0.00751024 -7.56419e-21)
(-0.0119825 0.00565675 -1.93326e-21)
(-0.00664469 0.00931168 -1.02184e-22)
(-0.00847588 0.00779772 0)
(-0.00438067 0.00899191 -8.53254e-23)
(-0.00215566 0.0100186 1.07221e-21)
(0.00239838 -0.0125447 -5.21696e-21)
(0.00501467 -0.010283 4.0502e-20)
(-0.00347826 -0.0132572 -8.08049e-22)
(-0.00112105 -0.0120535 3.02751e-20)
(-0.00792696 -0.0124647 5.22518e-21)
(-0.00554504 -0.011939 5.21658e-21)
(-0.0114038 -0.0107893 -1.64556e-20)
(-0.00940199 -0.0109645 5.12992e-21)
(-0.0138974 -0.00841458 -3.68083e-20)
(-0.0122566 -0.00913121 3.75383e-21)
(-0.0152967 -0.00553225 -5.40452e-21)
(-0.0141723 -0.00671382 3.87e-21)
(-0.0155449 -0.00238973 1.31347e-20)
(-0.0149786 -0.00390162 1.04505e-20)
(-0.01464 0.000749494 -8.91412e-23)
(-0.0146736 -0.000951594 -2.04701e-21)
(-0.0126473 0.00360591 7.67963e-21)
(-0.01328 0.00187813 2.04421e-21)
(-0.00972306 0.00591185 5.64539e-21)
(-0.0109081 0.00431919 5.67307e-21)
(-0.00610452 0.00744722 1.10118e-23)
(-0.00776022 0.00614025 1.14305e-21)
(-0.0040966 0.00716017 8.43131e-23)
(-0.00210795 0.00805641 3.28038e-22)
(0.00148171 -0.00995908 7.63942e-20)
(0.00356905 -0.00794721 5.61351e-21)
(-0.00342271 -0.0109822 3.50146e-20)
(-0.00145659 -0.00978056 -9.16553e-21)
(-0.00739879 -0.0107031 4.1878e-21)
(-0.00534031 -0.0101159 -3.45509e-23)
(-0.0105574 -0.00948321 2.55453e-20)
(-0.00883019 -0.00954418 5.17975e-21)
(-0.0128009 -0.00757219 4.54573e-20)
(-0.0113964 -0.00812969 -1.39665e-20)
(-0.0140424 -0.00517951 2.07201e-20)
(-0.0130975 -0.00615819 4.36646e-20)
(-0.0142344 -0.00253246 -4.81921e-21)
(-0.0137892 -0.00381264 -2.46735e-20)
(-0.0133844 0.000127647 0)
(-0.013476 -0.00132605 -1.90886e-20)
(-0.011563 0.00255419 0)