/*--------------------------------*- C++ -*----------------------------------*\
| =========                 |                                                 |
| \\      /  F ield         | OpenFOAM: The Open Source CFD Toolbox           |
|  \\    /   O peration     | Version:  v1806                                 |
|   \\  /    A nd           | Web:      www.OpenFOAM.com                      |
|    \\/     M anipulation  |                                                 |
\*---------------------------------------------------------------------------*/
FoamFile
{
    version     2.0;
    format      ascii;
    class       volVectorField;
    location    "5";
    object      U;
}
// * * * * * * * * * * * * * * * * * * * * * * * * * * * * * * * * * * * * * //

dimensions      [0 1 -1 0 0 0 0];


internalField   nonuniform List<vector> 
768
(
(-0.0130712 0.0656595 8.10595e-22)
(-0.00925744 0.0682115 1.37851e-23)
(-0.00394623 0.0692218 1.74122e-21)
(0.00277429 0.0712094 0)
(0.0103907 0.0719755 -2.16475e-20)
(0.0185929 0.071917 -6.57571e-21)
(0.0272166 0.0706035 4.1881e-20)
(0.0361668 0.0676918 0)
(0.0449719 0.0632884 3.1084e-20)
(0.052822 0.0574422 -1.20355e-20)
(0.0580945 0.0500467 1.19937e-20)
(0.0586274 0.0406414 2.24609e-20)
(-0.0120031 0.0456674 1.68615e-22)
(-0.00961961 0.0472239 4.15654e-22)
(-0.00550559 0.0498386 -3.79055e-21)
(0.00012798 0.0517489 0)
(0.00631162 0.0528049 1.84523e-20)
(0.0130512 0.0529914 -2.38495e-20)
(0.0201483 0.0518194 -1.37654e-20)
(0.0273674 0.0490462 6.18586e-22)
(0.0341099 0.0455656 -1.51986e-20)
(0.0401512 0.0421489 0)
(0.0440647 0.037754 0)
(0.0445856 0.0306688 2.33758e-20)
(-0.0111317 0.0291983 0)
(-0.00954548 0.0318863 -1.5782e-22)
(-0.0061608 0.0347243 3.31132e-21)
(-0.00174516 0.0366734 3.82484e-21)
(0.00319947 0.0376822 -2.71548e-20)
(0.00852648 0.0378755 1.74311e-20)
(0.0140643 0.0370504 -3.80763e-20)
(0.019706 0.0346084 1.43144e-20)
(0.0251021 0.0307483 -7.79346e-22)
(0.0299705 0.0276862 -2.24884e-21)
(0.0330648 0.0258466 -4.86884e-20)
(0.0318015 0.0216784 -2.31577e-20)
(-0.00982547 0.0174128 0)
(-0.00884002 0.0202847 3.02929e-22)
(-0.00637253 0.0231353 0)
(-0.00301359 0.0251069 1.14619e-20)
(0.000836 0.0261236 0)
(0.00500071 0.0261889 9.00147e-21)
(0.00925355 0.0253392 4.92816e-20)
(0.0135691 0.0233069 -1.26703e-20)
(0.017663 0.019448 0)
(0.0210055 0.0151579 0)
(0.0225355 0.0136488 -6.88031e-21)
(0.0189327 0.0125234 7.46341e-21)
(-0.0594097 -0.0319347 -2.785e-21)
(-0.0583506 -0.0246083 8.77313e-21)
(-0.0564028 -0.0195704 -8.83346e-21)
(-0.0541062 -0.0168074 8.89414e-20)
(-0.0521164 -0.0159893 -6.54617e-20)
(-0.051013 -0.0165628 9.73557e-20)
(-0.0511537 -0.0178622 4.14442e-20)
(-0.0526023 -0.0192375 1.22137e-20)
(-0.0551263 -0.020126 0)
(-0.0582721 -0.0201096 0)
(-0.0614888 -0.0189103 5.98352e-21)
(-0.0642501 -0.0164103 -4.75051e-21)
(-0.0434198 -0.0231315 5.65585e-21)
(-0.0423504 -0.016336 0)
(-0.040044 -0.0116436 0)
(-0.0372318 -0.0089636 -3.2279e-20)
(-0.0346506 -0.00808743 1.59142e-20)
(-0.0328817 -0.00865452 -2.5059e-20)
(-0.0322546 -0.0101349 0)
(-0.0327954 -0.0119792 3.01215e-20)
(-0.0343389 -0.0137032 9.85888e-21)
(-0.0366478 -0.014872 -1.41166e-20)
(-0.0394238 -0.015106 5.99749e-21)
(-0.0423249 -0.0141361 -2.36135e-21)
(-0.0297003 -0.0147811 -2.86186e-21)
(-0.0297154 -0.00938161 -1.25024e-20)
(-0.0277414 -0.00580873 -7.13526e-21)
(-0.025013 -0.00382183 -1.50856e-20)
(-0.0222586 -0.0031135 -2.01102e-20)
(-0.0200469 -0.00362763 0)
(-0.0187491 -0.00503918 -9.53385e-21)
(-0.0184956 -0.00695934 -2.11523e-20)
(-0.0192667 -0.00898114 -8.75304e-21)
(-0.0209701 -0.0107169 1.39582e-20)
(-0.0234189 -0.0117486 -4.92854e-21)
(-0.0263177 -0.0117806 1.47925e-21)
(-0.0159772 -0.00693831 -5.30093e-21)
(-0.0199031 -0.00340785 1.92957e-20)
(-0.0178979 -0.000726326 1.06723e-20)
(-0.015503 0.000268292 2.89144e-21)
(-0.0128569 0.000573209 4.39259e-20)
(-0.0106025 -0.000105981 1.68727e-20)
(-0.0090712 -0.00154966 -4.98995e-20)
(-0.00844898 -0.00350903 0)
(-0.0088091 -0.00565108 -2.80802e-20)
(-0.0101174 -0.00763243 0)
(-0.0122342 -0.00907138 8.356e-21)
(-0.0149149 -0.00968712 6.18783e-23)
(-0.0663026 -0.0128199 -1.07852e-21)
(-0.0678684 -0.00836847 0)
(-0.0692499 -0.00298448 3.95357e-21)
(-0.0704356 0.00339837 -5.89644e-21)
(-0.0711949 0.0106868 0)
(-0.0711988 0.0187015 -1.2178e-20)
(-0.0701042 0.0272091 -1.10494e-21)
(-0.0674924 0.0360501 6.37719e-20)
(-0.0634064 0.0447342 1.52919e-20)
(-0.0577478 0.0524582 -4.25192e-20)
(-0.0502486 0.0576837 -1.20371e-20)
(-0.0413952 0.059863 -2.2824e-20)
(-0.0450688 -0.0119747 -2.32896e-23)
(-0.0475378 -0.00876664 4.03235e-23)
(-0.0496576 -0.00454245 -3.92547e-21)
(-0.0512898 0.000643089 0)
(-0.0522891 0.00661586 -2.50664e-20)
(-0.0524477 0.01318 -1.9047e-20)
(-0.0513214 0.0201406 -8.15944e-22)
(-0.0486479 0.0271988 1.54984e-20)
(-0.0453449 0.0338784 -4.63643e-20)
(-0.0421442 0.0400751 5.41636e-20)
(-0.0378889 0.0442363 0)
(-0.0312635 0.0448348 2.46596e-20)
(-0.0293351 -0.0107054 3.81713e-23)
(-0.0321889 -0.00855963 -3.71113e-23)
(-0.0346236 -0.00538473 0)
(-0.036399 -0.0012957 -1.36012e-20)
(-0.0373565 0.00349334 2.45957e-20)
(-0.0375003 0.00869237 3.02312e-20)
(-0.0366874 0.0141133 -4.04589e-20)
(-0.0343231 0.0195754 -5.63082e-20)
(-0.0305682 0.024776 -5.57238e-20)
(-0.0274681 0.0296317 6.109e-20)
(-0.0254363 0.0329837 -1.12835e-20)
(-0.0213275 0.0321049 -4.90444e-20)
(-0.0178399 -0.0093312 4.22303e-23)
(-0.0206878 -0.00799217 -4.45377e-23)
(-0.0231664 -0.00570689 0)
(-0.0250014 -0.00260771 1.72156e-20)
(-0.0259571 0.00111861 1.08693e-21)
(-0.0259653 0.00518039 -6.35318e-21)
(-0.025098 0.00934275 0)
(-0.0231299 0.0135453 1.69685e-20)
(-0.0194438 0.0175257 4.15512e-20)
(-0.0152147 0.0208402 -2.34496e-21)
(-0.0134433 0.0225029 3.81915e-20)
(-0.0120104 0.0193728 5.07321e-20)
(-0.0325156 0.0602299 5.03157e-22)
(-0.0251997 0.0595223 -8.91895e-21)
(-0.0200542 0.0578431 8.97561e-21)
(-0.017087 0.0557284 0)
(-0.0160028 0.0538357 0)
(-0.0163056 0.0527567 -1.24485e-19)
(-0.017405 0.0528736 6.5011e-21)
(-0.0187536 0.0542029 -4.05976e-20)
(-0.0198569 0.0563505 0)
(-0.0202738 0.0588401 1.86203e-20)
(-0.0193896 0.0617187 6.43643e-21)
(-0.0166437 0.0628963 -1.84996e-21)
(-0.0233064 0.0441386 0)
(-0.0166149 0.0433012 0)
(-0.0118584 0.0411395 0)
(-0.00901318 0.0383883 1.72728e-20)
(-0.00791181 0.035799 3.02498e-21)
(-0.0082527 0.0339528 2.56813e-20)
(-0.0095905 0.0331675 -4.86482e-20)
(-0.0114717 0.0333971 4.23623e-20)
(-0.0135167 0.0343964 0)
(-0.0152443 0.0360985 -1.1824e-20)
(-0.0159456 0.0389734 -4.52778e-21)
(-0.0144247 0.0426465 1.1299e-21)
(-0.0145061 0.0303541 0)
(-0.00941048 0.0304843 -1.34042e-20)
(-0.00585059 0.0285691 4.41489e-21)
(-0.00372841 0.0258004 3.58185e-21)
(-0.00282031 0.0229445 -1.56253e-20)
(-0.00313457 0.0205544 -1.72788e-20)
(-0.00443979 0.0189864 -2.99655e-20)
(-0.00644406 0.0183821 -2.23113e-20)
(-0.00878595 0.0187789 -9.33157e-21)
(-0.0108838 0.0202674 1.5079e-20)
(-0.012126 0.022959 5.06293e-21)
(-0.0119654 0.0262734 0)
(-0.0060643 0.0167699 -2.97631e-21)
(-0.00315243 0.0205057 6.34652e-22)
(-0.00066778 0.0185322 0)
(0.000405155 0.0160196 0)
(0.000875092 0.0132139 1.63365e-20)
(0.000367015 0.0107287 2.24776e-21)
(-0.000995098 0.00890049 5.23187e-20)
(-0.00305384 0.00796645 0)
(-0.00545839 0.00810375 3.01893e-20)
(-0.00772297 0.00939195 0)
(-0.0093143 0.011735 4.31564e-21)
(-0.00990858 0.014603 0)
(-0.00851218 0.00880624 6.54676e-22)
(-0.00801335 0.0116253 -2.96918e-22)
(-0.0062857 0.0143329 0)
(-0.00380274 0.0162959 -1.12279e-20)
(-0.000868208 0.0174183 -4.30434e-21)
(0.0023331 0.0175929 -2.58703e-20)
(0.00554498 0.0167697 1.03356e-20)
(0.00863985 0.0149142 0)
(0.0112885 0.0115337 0)
(0.0123338 0.00635742 9.97513e-21)
(0.0104941 0.00168585 2.62578e-20)
(0.00730229 0.00256406 0)
(-0.00730195 0.00272131 -6.39867e-22)
(-0.00713652 0.00535842 0)
(-0.00598769 0.00785337 -4.9419e-21)
(-0.00418676 0.00976294 2.95524e-21)
(-0.00197452 0.0109743 -2.95899e-21)
(0.000460864 0.0113613 2.41084e-20)
(0.00288098 0.0108117 1.96442e-20)
(0.00506246 0.00931675 -1.03602e-20)
(0.00668153 0.00671894 0)
(0.00696786 0.00290881 0)
(0.00418818 -0.00115898 0)
(-0.000150937 0.000284866 0)
(-0.00620354 -0.00141241 6.02071e-22)
(-0.0062778 0.000986253 -2.23716e-22)
(-0.00554676 0.00325942 5.10595e-21)
(-0.00425775 0.0050776 0)
(-0.00260198 0.0063322 0)
(-0.000752541 0.00690828 -7.12289e-20)
(0.00108629 0.0066935 4.33351e-20)
(0.00268971 0.00568453 0)
(0.00377075 0.00385303 -9.66913e-21)
(0.0038882 0.00137345 1.87217e-20)
(0.00212039 -0.00160412 -9.07281e-21)
(0.000367185 -0.00138619 0)
(-0.00521165 -0.00406537 -5.82854e-22)
(-0.00545775 -0.0019219 -5.89626e-23)
(-0.00502793 0.000131153 -3.81072e-21)
(-0.00411212 0.00184062 5.22929e-21)
(-0.00287182 0.00309466 -8.58322e-21)
(-0.00145742 0.00380137 -5.77123e-21)
(-4.29248e-05 0.00386858 -5.81711e-20)
(0.00119186 0.0033078 -8.993e-21)
(0.00200697 0.00214326 8.99517e-21)
(0.00218249 0.000631734 3.49271e-20)
(0.00127902 -0.00120234 0)
(0.000369769 -0.00101652 0)
(-0.0043336 -0.00562375 0)
(-0.00467487 -0.00371875 0)
(-0.00446219 -0.00186981 3.69531e-21)
(-0.00381954 -0.000283727 -7.41759e-21)
(-0.00288812 0.000940786 -1.23058e-20)
(-0.00178473 0.00172194 6.20859e-20)
(-0.000673025 0.00199058 1.61411e-20)
(0.000311215 0.00177397 3.98987e-20)
(0.000991683 0.00110227 0)
(0.00126397 0.000215707 -3.394e-20)
(0.000930291 -0.000931289 -3.20759e-20)
(0.000700436 -0.000959207 0)
(-0.0035626 -0.00639787 0)
(-0.00394485 -0.00470115 1.65288e-22)
(-0.00386716 -0.00303186 -1.65604e-22)
(-0.00341686 -0.00156222 1.98957e-21)
(-0.00271269 -0.000386997 3.59667e-20)
(-0.00183946 0.000426863 -3.10704e-20)
(-0.000940082 0.000831532 6.47763e-21)
(-0.000124703 0.000851141 -3.11265e-20)
(0.000474184 0.000509596 -7.92358e-21)
(0.000816098 8.55539e-06 7.91545e-21)
(0.000814579 -0.000720762 3.11519e-20)
(0.000845213 -0.000843448 0)
(-0.00288121 -0.00661713 0)
(-0.00326403 -0.00509116 1.40527e-22)
(-0.00326227 -0.0035716 -1.40763e-22)
(-0.00293824 -0.0022055 0)
(-0.00238681 -0.00108246 -2.04183e-20)
(-0.00168632 -0.000258196 -3.52881e-21)
(-0.000942642 0.000225958 -1.26789e-20)
(-0.000243259 0.000393754 -3.49259e-20)
(0.000299761 0.000254469 2.95206e-20)
(0.000665332 -3.00386e-05 0)
(0.000828249 -0.000528196 5.95885e-20)
(0.00091593 -0.000716178 0)
(-0.00226996 -0.00641776 0)
(-0.00262217 -0.00502543 1.20975e-22)
(-0.00265144 -0.00362668 2.35971e-21)
(-0.00240327 -0.00234938 1.70728e-21)
(-0.00195282 -0.00127786 1.43503e-20)
(-0.0013685 -0.000462046 -5.64526e-21)
(-0.000739822 6.02293e-05 3.04619e-20)
(-0.000136062 0.000307212 5.39588e-20)
(0.000356419 0.000269344 2.75069e-20)
(0.00070174 8.30075e-05 7.21992e-21)
(0.000896046 -0.000309997 -7.59417e-21)
(0.000924415 -0.000575126 0)
(-0.00171106 -0.00586016 0)
(-0.00200759 -0.00457242 0)
(-0.00203298 -0.00327351 -2.41794e-21)
(-0.00182131 -0.00207631 0)
(-0.00143331 -0.00106018 -4.42754e-22)
(-0.000928171 -0.000272082 -5.35009e-21)
(-0.000389095 0.000251264 5.35595e-21)
(0.000135346 0.000512278 -2.58989e-20)
(0.000559355 0.000498741 -7.68903e-21)
(0.000841145 0.000326314 6.21445e-20)
(0.00097049 -4.90402e-05 -5.59852e-20)
(0.000870871 -0.000408423 5.53102e-20)
(-0.00119211 -0.00497195 0)
(-0.00141183 -0.00376776 -3.53173e-22)
(-0.00140618 -0.00255505 -2.15299e-21)
(-0.00120085 -0.00143516 1.5249e-21)
(-0.000847671 -0.000483925 -1.84418e-20)
(-0.000402042 0.000254691 1.56397e-20)
(6.84348e-05 0.000731387 -2.26721e-20)
(0.000510255 0.000946978 5.82483e-21)
(0.000838519 0.00089731 -5.23629e-20)
(0.00101575 0.00067243 -4.70835e-20)
(0.00101648 0.000253214 -6.73221e-21)
(0.000759705 -0.00021252 -5.38736e-20)
(-0.000705295 -0.0036377 0)
(-0.000820753 -0.00248878 1.06824e-21)
(-0.000754309 -0.00135136 2.10248e-21)
(-0.000526602 -0.000319643 0)
(-0.000183679 0.00053489 -2.00674e-21)
(0.000218309 0.00116424 -1.12569e-20)
(0.000623185 0.00152011 -2.0277e-20)
(0.000959446 0.00161618 -1.1698e-20)
(0.00115777 0.00145126 6.26635e-20)
(0.00118739 0.0011038 4.55121e-20)
(0.00102012 0.000586656 0)
(0.000603618 6.50211e-06 0)
(-0.00017969 -0.000897373 8.58487e-22)
(-0.000129921 3.07134e-05 1.3529e-23)
(3.40654e-05 0.000873668 0)
(0.000284925 0.0015634 1.39699e-21)
(0.000580752 0.00205722 -1.39642e-21)
(0.000874125 0.00232983 -2.19744e-20)
(0.00111542 0.00236673 8.62646e-20)
(0.00125557 0.00219084 0)
(0.00125478 0.00182602 -4.84359e-20)
(0.00110127 0.00133715 -5.01125e-20)
(0.000795022 0.000770397 -5.07978e-20)
(0.000352793 0.000187938 5.08167e-20)
(-0.00740692 0.00187502 5.20294e-21)
(-0.0122276 0.00254626 3.09298e-20)
(-0.0104447 0.00332666 -4.22084e-20)
(-0.00825594 0.00328155 0)
(-0.00571967 0.00322061 -5.63588e-20)
(-0.00357444 0.00237657 -1.50356e-20)
(-0.0020587 0.00088119 4.72257e-20)
(-0.00134849 -0.00109519 2.12382e-20)
(-0.00151526 -0.00327744 3.43531e-20)
(-0.00255818 -0.00533424 0)
(-0.00436755 -0.00696519 -8.17876e-21)
(-0.00674557 -0.00791933 6.00092e-23)
(-0.00654095 0.00702167 0)
(-0.00843152 0.00674881 -3.04133e-20)
(-0.00550771 0.00609632 4.15124e-20)
(-0.00315831 0.00525036 0)
(-0.000642338 0.00488584 -3.48226e-20)
(0.0013994 0.00398705 -1.27708e-20)
(0.00286813 0.00252313 5.21734e-20)
(0.0035908 0.000598428 -2.16071e-21)
(0.00352258 -0.00154118 0)
(0.00267207 -0.00359592 0)
(0.00112105 -0.00530483 0)
(-0.000966706 -0.00644937 5.56632e-23)
(-0.0052348 0.00699646 0)
(-0.00563588 0.00871467 -1.91198e-20)
(-0.00215796 0.00768099 -4.02522e-20)
(0.000285101 0.00640586 0)
(0.00270036 0.00574268 3.4414e-20)
(0.00462403 0.00484696 -2.26785e-20)
(0.00603382 0.00349391 -6.82368e-20)
(0.00677412 0.00170578 9.65494e-21)
(0.00679151 -0.000305402 1.45618e-20)
(0.00609876 -0.00228299 0)
(0.00476805 -0.00398509 6.3097e-21)
(0.00294208 -0.0052152 -9.61826e-22)
(-0.00417756 0.006054 0)
(-0.00350784 0.00906598 2.56221e-20)
(7.34976e-05 0.00832387 6.35456e-20)
(0.00254516 0.00695688 0)
(0.00476081 0.00606929 1.05148e-20)
(0.0065075 0.00515842 3.41749e-20)
(0.00781711 0.00393479 -4.23727e-20)
(0.0085564 0.00233644 -2.16388e-20)
(0.00865417 0.000508392 -1.25162e-21)
(0.00810841 -0.00132709 -1.71722e-21)
(0.0069798 -0.00295115 -5.0014e-21)
(0.00539296 -0.00418588 6.96942e-22)
(-0.0033475 0.00496309 -6.32416e-21)
(-0.00209878 0.0084185 1.34316e-20)
(0.00140657 0.00821221 -2.97635e-20)
(0.00388689 0.0070208 -8.18676e-21)
(0.00591195 0.00604949 -4.69409e-20)
(0.00746174 0.00513042 9.71715e-21)
(0.00863534 0.00402066 7.50604e-20)
(0.00933923 0.00261339 3.58853e-22)
(0.00949242 0.000993308 -1.70021e-20)
(0.00907341 -0.000660591 1.78184e-20)
(0.00812597 -0.00215769 0)
(0.00675483 -0.00333771 2.68461e-21)
(-0.00259822 0.00388878 0)
(-0.00118414 0.00725656 7.02512e-21)
(0.00211603 0.00755275 -7.03281e-21)
(0.00455918 0.00668805 0)
(0.00643629 0.00578716 2.71341e-20)
(0.00781372 0.00490771 3.60418e-20)
(0.00884561 0.00390401 -2.85086e-20)
(0.00948603 0.00267211 4.1441e-21)
(0.00966159 0.00125542 -4.13712e-21)
(0.00933664 -0.000204757 -1.35098e-20)
(0.00853752 -0.00154931 0)
(0.00734867 -0.00263752 -8.45318e-22)
(-0.00195025 0.00297902 -5.07865e-20)
(-0.000543376 0.00595853 -4.62049e-20)
(0.00247706 0.00660493 6.25238e-22)
(0.00481294 0.0060928 -7.53683e-21)
(0.00655969 0.0053602 -3.30745e-20)
(0.00779354 0.00457443 -4.37787e-20)
(0.00869666 0.00368107 8.59776e-21)
(0.0092595 0.00260651 0)
(0.00942604 0.00137797 0)
(0.00915792 0.000106747 0)
(0.00846662 -0.00107712 -4.14504e-21)
(0.00741943 -0.00205254 -4.89214e-22)
(-0.00139198 0.00224134 4.30846e-20)
(-2.58238e-05 0.00474021 5.81867e-20)
(0.00268561 0.00557877 0)
(0.00483959 0.00536787 0)
(0.00643777 0.00483623 5.56678e-20)
(0.00753711 0.00417617 -3.2251e-20)
(0.00832105 0.00339929 3.59552e-20)
(0.00880067 0.00246896 3.7547e-20)
(0.00893438 0.00141314 -3.60844e-21)
(0.00868702 0.000320199 1.2742e-21)
(0.00806234 -0.000703131 3.23804e-21)
(0.00711494 -0.00155404 0)
(-0.000906856 0.00163607 0)
(0.000430323 0.0036684 6.62865e-21)
(0.00281871 0.00458008 -6.62254e-21)
(0.00472137 0.00459479 -7.43094e-21)
(0.00613222 0.00425338 -3.095e-20)
(0.0070884 0.00372658 3.13647e-20)
(0.00775577 0.00307106 -2.32483e-20)
(0.00814743 0.00227971 -5.77618e-20)
(0.00823092 0.00138513 0)
(0.00797583 0.000462132 -1.20915e-21)
(0.00738332 -0.00040181 1.20912e-21)
(0.00650008 -0.0011203 0)
(-0.000487017 0.00113109 0)
(0.00081215 0.00272964 6.48477e-21)
(0.00284915 0.00362881 3.6021e-22)
(0.00444078 0.00379703 -6.28568e-20)
(0.00562956 0.00361603 6.56387e-20)
(0.00643344 0.00322117 -4.42878e-20)
(0.00698753 0.00269207 3.81948e-21)
(0.00729138 0.00203957 3.46153e-20)
(0.00731553 0.00130282 -3.26391e-21)
(0.00703429 0.000546583 -1.03705e-20)
(0.00644971 -0.000157193 0)
(0.00560451 -0.000736487 0)
(-0.000126639 0.000722846 0)
(0.00107737 0.00191394 0)
(0.00271073 0.00272698 0)
(0.00396114 0.00298635 5.46854e-20)
(0.00491985 0.00293639 -1.20458e-19)
(0.00557784 0.00266963 3.59553e-20)
(0.00602291 0.00226075 -3.41473e-21)
(0.00622699 0.00174567 3.41379e-21)
(0.00616512 0.00116371 0)
(0.00581849 0.000571686 2.12712e-20)
(0.00519533 3.10072e-05 -9.3167e-21)
(0.00434063 -0.000398939 4.08496e-22)
(0.000179425 0.000384266 -4.66751e-20)
(0.00109593 0.0011191 0)
(0.00213515 0.00168989 6.42062e-21)
(0.00293144 0.00193069 -5.90004e-20)
(0.00353661 0.00194503 4.77776e-20)
(0.00391067 0.00178059 1.3675e-20)
(0.00408294 0.00149636 -3.71089e-20)
(0.00402297 0.00114233 6.30342e-21)
(0.00372461 0.000758849 -3.02397e-21)
(0.00320138 0.000395123 -1.94026e-20)
(0.00248809 9.72133e-05 7.54613e-21)
(0.00164304 -9.81777e-05 0)
(-0.00942311 -0.00804648 -4.58418e-25)
(-0.0120958 -0.00730752 -5.68862e-22)
(-0.0144884 -0.00572932 5.68065e-22)
(-0.0163319 -0.00344188 0)
(-0.0173828 -0.000601837 -2.02653e-20)
(-0.0174984 0.00252389 -1.61425e-20)
(-0.0166515 0.00566474 5.57121e-20)
(-0.0148345 0.0086772 3.88198e-20)
(-0.0115988 0.0112762 0)
(-0.00658792 0.012408 -2.17068e-21)
(-0.00193671 0.0108714 -3.77683e-20)
(-0.00247553 0.0078077 -2.61653e-20)
(-0.00337095 -0.00688722 1.99425e-24)
(-0.00582245 -0.00657009 -5.00056e-22)
(-0.00807801 -0.0055294 -5.63158e-21)
(-0.00988891 -0.0038741 3.21006e-21)
(-0.0110279 -0.00173588 1.21566e-20)
(-0.0113584 0.000650386 -4.47254e-20)
(-0.0107825 0.00301882 -3.31255e-20)
(-0.00930017 0.00514707 0)
(-0.00677487 0.00674738 0)
(-0.00304707 0.00709205 -3.30021e-20)
(0.00100912 0.00447781 -9.93988e-21)
(-0.000140361 0.000250066 -3.24541e-20)
(0.000806138 -0.00584602 -3.5653e-22)
(-0.00141508 -0.00581977 5.08309e-22)
(-0.00350911 -0.00516877 5.98099e-21)
(-0.00524825 -0.00398741 0)
(-0.00643567 -0.00239148 -9.30133e-21)
(-0.00696254 -0.000574026 5.35455e-20)
(-0.0067229 0.00123064 -2.7585e-20)
(-0.00570818 0.00279619 0)
(-0.0039035 0.00386802 0)
(-0.00144642 0.00402038 0)
(0.00151533 0.00232605 0)
(0.00139813 0.00053297 3.14323e-20)
(0.00350972 -0.00491677 1.44429e-23)
(0.00152242 -0.00508837 -1.8143e-22)
(-0.000393958 -0.00471959 -3.78673e-22)
(-0.0020308 -0.00386902 2.65858e-21)
(-0.00322447 -0.00268096 6.62748e-21)
(-0.00389129 -0.00129376 -3.57086e-20)
(-0.00393523 0.000100575 1.00351e-20)
(-0.00335846 0.00130908 0)
(-0.00219749 0.00211351 -3.69903e-20)
(-0.000673383 0.00230454 2.73608e-20)
(0.00118854 0.00143759 -2.58044e-20)
(0.00109105 0.000528001 -3.25779e-20)
(0.00510082 -0.00409572 8.66954e-22)
(0.00332826 -0.00438057 -7.35379e-23)
(0.00159777 -0.00420761 0)
(8.19188e-05 -0.00360141 -2.42089e-21)
(-0.00109198 -0.00270914 -1.63419e-20)
(-0.00183773 -0.0016317 -3.13323e-21)
(-0.00208521 -0.000537397 1.56288e-21)
(-0.00184614 0.000429614 -3.34871e-20)
(-0.0011632 0.00110217 2.71976e-20)
(-0.000252441 0.00137692 -2.65573e-20)
(0.0009248 0.00105624 3.377e-20)
(0.000994095 0.000789855 -4.27606e-22)
(0.00589149 -0.00337378 7.37671e-23)
(0.0043085 -0.00370891 2.24898e-22)
(0.00274488 -0.00364929 -2.99282e-22)
(0.00134316 -0.00322831 2.22054e-21)
(0.000216239 -0.00254857 2.19233e-20)
(-0.0005674 -0.00169674 3.96655e-21)
(-0.000947306 -0.000807555 2.32045e-20)
(-0.000939303 -9.65118e-06 5.57762e-20)
(-0.000579022 0.000581695 8.11674e-21)
(-4.76709e-05 0.000921094 0)
(0.00071282 0.000919111 0)
(0.000868422 0.000912573 3.10709e-20)
(0.0061201 -0.00273392 8.4846e-30)
(0.00469285 -0.00307547 3.08858e-23)
(0.00326777 -0.0030786 -3.97779e-21)
(0.00196755 -0.0027744 0)
(0.000891441 -0.00224012 0)
(9.98286e-05 -0.00155615 -6.3966e-21)
(-0.000355974 -0.000813203 6.40796e-21)
(-0.000496468 -0.000131426 -6.00473e-20)
(-0.000332552 0.000398832 -3.87525e-20)
(-1.38552e-05 0.000759571 1.56933e-20)
(0.000512639 0.00091206 5.44504e-20)
(0.000731663 0.000964406 6.09682e-20)
(0.00593375 -0.00215831 -6.14114e-22)
(0.00462746 -0.00247393 4.0545e-22)
(0.003313 -0.00250048 6.80892e-21)
(0.00209889 -0.00226283 -1.26148e-20)
(0.00107373 -0.00182332 -1.52312e-20)
(0.000293343 -0.00124978 -8.54758e-21)
(-0.000201642 -0.00062527 6.03071e-21)
(-0.000416457 -2.88128e-05 2.87567e-20)
(-0.000351118 0.000445663 8.89625e-20)
(-0.000131163 0.000781842 6.00892e-20)
(0.00028742 0.000959894 -3.76348e-22)
(0.000583245 0.00095736 1.06978e-22)
(0.00540385 -0.00163041 6.69743e-22)
(0.00419061 -0.00189471 -1.61975e-22)
(0.00296592 -0.00191346 -3.35798e-21)
(0.00182753 -0.00170498 2.2395e-20)
(0.000855807 -0.00132333 1.67255e-20)
(0.000102986 -0.000825674 2.39354e-21)
(-0.000390523 -0.000291848 -2.43656e-20)
(-0.000618028 0.000228629 0)
(-0.000578844 0.000633645 -8.07901e-22)
(-0.000374418 0.000903786 -1.16351e-19)
(2.3888e-05 0.00101525 -6.58243e-20)
(0.000411208 0.00089064 7.31274e-21)
(0.00456837 -0.00113844 6.4827e-22)
(0.00342688 -0.0013309 3.69789e-22)
(0.00227735 -0.00131773 -3.27586e-21)
(0.00120996 -0.00111035 -1.16276e-20)
(0.000298817 -0.000761773 -1.3883e-20)
(-0.000404579 -0.000320951 -7.76338e-21)
(-0.000851314 0.00014411 -3.5808e-22)
(-0.00103834 0.000578406 -4.53083e-20)
(-0.000963448 0.000890929 -1.16353e-19)
(-0.000711991 0.00105599 6.32865e-20)
(-0.000274885 0.00104262 0)
(0.000212207 0.000768296 -1.12741e-19)
(0.0033231 -0.000674577 -6.33044e-22)
(0.00222381 -0.000769521 -3.16863e-23)
(0.00113716 -0.000698007 2.79168e-21)
(0.000148372 -0.000468125 -1.6648e-21)
(-0.000671322 -0.000127482 3.30228e-20)
(-0.00126793 0.000270383 1.94587e-20)
(-0.0015982 0.000667544 2.27691e-20)
(-0.00167153 0.000995396 5.01137e-20)
(-0.00148749 0.00118251 5.3025e-20)
(-0.00112318 0.00120312 0)
(-0.000598353 0.00102765 0)
(-7.62343e-06 0.000604194 5.49728e-20)
(0.000737869 -0.000169448 6.1552e-22)
(-0.000159017 -0.000110569 6.24638e-22)
(-0.000969739 5.44213e-05 2.62658e-21)
(-0.00163063 0.000303595 1.05049e-20)
(-0.00210053 0.000597121 -1.50388e-20)
(-0.00235134 0.00088465 -5.11476e-21)
(-0.00237377 0.00111956 5.05067e-21)
(-0.00218956 0.00125435 -6.16972e-21)
(-0.00181967 0.00124864 6.17095e-21)
(-0.00132929 0.0010949 0)
(-0.000768064 0.000789633 0)
(-0.000186923 0.000350048 5.31687e-20)
(0.00277458 0.00825976 0)
(0.00300881 0.0127553 2.98605e-20)
(0.00349184 0.0109056 -7.56391e-21)
(0.0034264 0.0085637 0)
(0.00347887 0.00584898 0)
(0.00277473 0.00347339 -1.5762e-20)
(0.00135436 0.00168654 -2.58047e-20)
(-0.000694526 0.000716156 7.95368e-21)
(-0.00306915 0.000730752 -2.94907e-20)
(-0.00535441 0.00179095 0)
(-0.00711685 0.00374886 -9.10397e-21)
(-0.00812404 0.00619524 -1.38826e-21)
(0.00806471 0.00701016 0)
(0.00742196 0.0088171 0)
(0.00641667 0.00576823 3.58858e-20)
(0.00542503 0.00327686 0)
(0.00509697 0.000599682 1.33295e-20)
(0.00430067 -0.00163742 -2.74221e-20)
(0.00290059 -0.00332525 6.91737e-20)
(0.000933895 -0.00425258 6.60038e-21)
(-0.00134511 -0.00431077 -6.57305e-21)
(-0.0035801 -0.00346463 -2.02714e-20)
(-0.00542352 -0.00183389 0)
(-0.00666106 0.000302425 1.35615e-21)
(0.00796312 0.00562603 0)
(0.00957565 0.00593101 7.72531e-21)
(0.00818655 0.00221768 -5.19546e-20)
(0.00666132 -0.000360907 9.52048e-21)
(0.00594097 -0.00289751 0)
(0.00509674 -0.0049635 3.5987e-20)
(0.00378682 -0.00653375 -8.99057e-20)
(0.00197938 -0.00742488 0)
(-0.000127833 -0.00754389 0)
(-0.00224239 -0.00687277 1.74769e-20)
(-0.00407263 -0.00549807 -4.98638e-21)
(-0.00541855 -0.00361607 -1.19488e-21)
(0.00676039 0.00445844 0)
(0.0100037 0.00367668 0)
(0.00898581 -0.000187835 3.34107e-20)
(0.00732874 -0.00280506 -1.02034e-20)
(0.0063026 -0.00510572 1.02283e-20)
(0.00538253 -0.00694245 -1.0301e-19)
(0.00417484 -0.00835316 1.43932e-20)
(0.00256024 -0.00919469 -2.69287e-20)
(0.000664364 -0.0093655 2.4888e-20)
(-0.00127751 -0.00884137 -1.66305e-20)
(-0.00301498 -0.00768357 6.8475e-21)
(-0.00436067 -0.00603743 1.15682e-21)
(0.00545552 0.00355993 0)
(0.00929871 0.00216106 -2.83655e-20)
(0.00894515 -0.0016397 -3.24244e-20)
(0.00749415 -0.00428515 0)
(0.00634078 -0.00637719 2.9032e-20)
(0.00536201 -0.00798103 6.39206e-20)
(0.00423935 -0.0092085 6.91385e-20)
(0.00281023 -0.00997286 -1.34575e-20)
(0.0011344 -0.0101728 -1.89916e-20)
(-0.000606109 -0.00976743 1.61294e-20)
(-0.00220122 -0.00879557 0)
(-0.00347923 -0.00736735 0)
(0.00420837 0.00275473 0)
(0.00799445 0.00119287 2.7635e-20)
(0.00826511 -0.002395 -8.24313e-21)
(0.00720621 -0.00502931 8.266e-21)
(0.00612558 -0.00697605 -3.81475e-20)
(0.00515988 -0.00839204 -9.76139e-21)
(0.00411994 -0.00944902 -3.03197e-20)
(0.00285742 -0.01012 7.95194e-20)
(0.0013898 -0.0103219 -4.45615e-21)
(-0.000144165 -0.0100022 1.61612e-21)
(-0.00157333 -0.00918007 -1.615e-21)
(-0.00274703 -0.00793842 0)
(0.00317548 0.00206167 0)
(0.00652728 0.000537322 5.60492e-20)
(0.0072325 -0.0027514 0)
(0.00659688 -0.00529895 3.29137e-20)
(0.00571719 -0.00712853 -2.59838e-20)
(0.00484132 -0.0083992 -5.42089e-20)
(0.00390001 -0.00931356 4.68307e-21)
(0.00278806 -0.00988957 -3.11436e-20)
(0.00151121 -0.0100692 0)
(0.000174939 -0.00980045 1.50978e-21)
(-0.00108271 -0.00908705 -1.50906e-21)
(-0.00213291 -0.00799178 0)
(0.00235873 0.00146828 0)
(0.00515303 1.50101e-05 7.79942e-21)
(0.00609573 -0.00294042 -7.13959e-21)
(0.00582167 -0.00531139 3.12464e-20)
(0.00518332 -0.00700176 6.7413e-20)
(0.0044437 -0.00813891 2.64975e-20)
(0.0036186 -0.00892826 8.62124e-21)
(0.00264731 -0.00941281 3.61849e-20)
(0.001546 -0.00955259 -3.89801e-21)
(0.000394755 -0.00930166 1.3961e-20)
(-0.000693033 -0.00865656 -1.42227e-21)
(-0.00160896 -0.00766605 0)
(0.00170447 0.000955499 5.29125e-20)
(0.00395639 -0.000453942 -5.40259e-20)
(0.00498765 -0.00306053 5.01786e-20)
(0.0049816 -0.00516566 6.85518e-21)
(0.0045688 -0.00666422 -3.25073e-20)
(0.00398025 -0.00765456 -8.19351e-21)
(0.00328186 -0.00832405 8.19736e-21)
(0.0024493 -0.00871784 -7.27762e-22)
(0.0015132 -0.00880529 0)
(0.000538775 -0.00854627 -1.22172e-20)
(-0.000380113 -0.00793611 0)
(-0.00115375 -0.00701513 0)
(0.00116755 0.000514562 -5.16086e-20)
(0.0029205 -0.000854745 6.02817e-20)
(0.00393412 -0.00308018 -6.30904e-20)
(0.00410515 -0.00483983 -5.96583e-20)
(0.0038823 -0.00609601 -7.82694e-21)
(0.00344436 -0.00692509 -3.14609e-20)
(0.00287882 -0.00747981 3.5077e-20)
(0.00219021 -0.00778633 -2.2597e-20)
(0.00141756 -0.00781609 -3.53283e-21)
(0.000619019 -0.00753298 -1.14734e-20)
(-0.000129076 -0.00693484 4.56848e-21)
(-0.000752828 -0.00605804 0)
(0.000737093 0.000138246 0)
(0.00202362 -0.00113066 -5.21833e-20)
(0.00292805 -0.00290765 6.18233e-20)
(0.0032022 -0.00427274 -1.43891e-20)
(0.00313271 -0.00527225 1.49227e-20)
(0.00284015 -0.00594641 3.06874e-20)
(0.00240438 -0.00639508 -4.1511e-20)
(0.00186389 -0.00660638 3.66477e-21)
(0.00125402 -0.00655424 0)
(0.000631505 -0.00620876 1.11999e-20)
(5.8689e-05 -0.00557571 -1.33183e-20)
(-0.000402849 -0.0046957 0)
(0.000386987 -0.000179324 4.93457e-20)
(0.00115909 -0.00113491 -5.06005e-20)
(0.00177576 -0.00224433 -5.30127e-20)
(0.00203168 -0.00308949 0)
(0.0020427 -0.00371477 5.78206e-20)
(0.00187009 -0.00410278 5.14284e-20)
(0.00157426 -0.00428489 -2.16179e-20)
(0.00120794 -0.00423487 3.27561e-21)
(0.000809164 -0.00394437 -3.27649e-21)
(0.000429397 -0.00342019 0)
(0.000114764 -0.00269659 1.80891e-23)
(-9.58471e-05 -0.0018314 -1.52266e-21)
)
;

boundaryField
{
    rotor
    {
        type            movingWallVelocity;
        value           nonuniform 0();
    }
    stator
    {
        type            movingWallVelocity;
        value           nonuniform List<vector> 
96
(
(2.26913e-18 6.93147e-17 1.83671e-36)
(0 0 0)
(-5.89194e-17 -3.56869e-16 0)
(2.4552e-16 1.05298e-15 -1.38778e-16)
(-1.54202e-16 -5.08335e-16 0)
(-2.75513e-16 -7.32021e-16 1.34497e-32)
(1.63622e-33 -7.41364e-34 1.38778e-16)
(-4.61558e-16 -8.63515e-16 0)
(9.95729e-16 1.60126e-15 0)
(0 0 0)
(-6.98368e-16 -8.50964e-16 -1.38778e-16)
(1.10785e-15 1.18284e-15 -1.96475e-32)
(-1.10785e-15 -1.03761e-15 -1.38778e-16)
(-1.93985e-15 -1.592e-15 -2.77556e-16)
(0 0 0)
(-1.95098e-16 -1.2132e-16 -1.38778e-16)
(0 0 -1.38778e-16)
(8.3471e-16 3.78202e-16 0)
(9.72466e-16 3.6601e-16 -2.77556e-16)
(5.08335e-16 1.54202e-16 0)
(3.54489e-17 8.26552e-18 -1.38778e-16)
(-3.56869e-16 -5.89194e-17 -1.38778e-16)
(0 0 0)
(-6.5948e-18 -2.15891e-19 -2.77556e-16)
(-6.93147e-17 2.26913e-18 1.83671e-36)
(-2.16594e-16 2.13326e-17 1.38778e-16)
(0 0 0)
(0 0 0)
(-5.08335e-16 1.54202e-16 -1.38778e-16)
(0 0 0)
(8.3471e-16 -3.78202e-16 0)
(1.78663e-15 -9.54975e-16 -1.38778e-16)
(0 0 0)
(1.0513e-15 -7.53354e-16 -1.38778e-16)
(-1.32682e-15 1.08889e-15 0)
(-7.49891e-17 7.0235e-17 -1.38778e-16)
(1.10785e-15 -1.18284e-15 1.96475e-32)
(-6.98368e-16 8.50964e-16 -1.38778e-16)
(0 0 0)
(-1.2132e-16 1.95098e-16 0)
(-4.61558e-16 8.63515e-16 -6.77432e-33)
(3.91528e-17 -8.64121e-17 3.21105e-32)
(9.04973e-17 -2.40446e-16 -1.38778e-16)
(3.29046e-17 -1.08472e-16 0)
(2.4552e-16 -1.05298e-15 -1.38778e-16)
(3.0298e-17 -1.83512e-16 0)
(0 0 0)
(2.26913e-18 -6.93147e-17 -1.83671e-36)
(-1.11022e-15 1.11022e-15 0)
(-5.55112e-16 5.55112e-16 -1.38778e-16)
(-1.11022e-15 1.11022e-15 0)
(0 0 -1.38778e-16)
(-5.55112e-16 5.55112e-16 -1.38778e-16)
(0 0 -1.38778e-16)
(-1.11022e-15 1.11022e-15 -1.38778e-16)
(-1.11022e-15 1.11022e-15 0)
(-1.11022e-15 1.11022e-15 -1.38778e-16)
(0 0 -1.38778e-16)
(0 0 -1.38778e-16)
(0 0 -1.38778e-16)
(0 0 0)
(5.55112e-16 -5.55112e-16 0)
(-5.55112e-16 5.55112e-16 -1.38778e-16)
(5.55112e-16 -5.55112e-16 0)
(0 0 -1.38778e-16)
(5.55112e-16 -5.55112e-16 0)
(5.55112e-16 -5.55112e-16 0)
(0 0 0)
(0 0 -1.38778e-16)
(0 0 -1.38778e-16)
(0 0 0)
(0 0 0)
(0 0 0)
(-5.55112e-16 -5.55112e-16 0)
(-1.11022e-15 -1.11022e-15 0)
(0 0 0)
(-5.55112e-16 -5.55112e-16 0)