/*--------------------------------*- C++ -*----------------------------------*\
| =========                 |                                                 |
| \\      /  F ield         | OpenFOAM: The Open Source CFD Toolbox           |
|  \\    /   O peration     | Version:  v1806                                 |
|   \\  /    A nd           | Web:      www.OpenFOAM.com                      |
|    \\/     M anipulation  |                                                 |
\*---------------------------------------------------------------------------*/
FoamFile
{
    version     2.0;
    format      ascii;
    class       volScalarField;
    location    "5";
    object      p;
}
// * * * * * * * * * * * * * * * * * * * * * * * * * * * * * * * * * * * * * //

dimensions      [0 2 -2 0 0 0 0];


internalField   nonuniform List<scalar> 
768
(
-0.0433777
-0.0436919
-0.0440073
-0.0442463
-0.044349
-0.0444535
-0.0446178
-0.0448398
-0.0450919
-0.0453368
-0.045555
-0.045747
-0.0402349
-0.040471
-0.0407151
-0.0409651
-0.0412266
-0.0415078
-0.0418083
-0.042147
-0.0424846
-0.0427243
-0.0428022
-0.0427462
-0.0383121
-0.0384355
-0.0386314
-0.0388803
-0.0391437
-0.0394066
-0.0396341
-0.039824
-0.0399544
-0.0399772
-0.0398428
-0.0395898
-0.0354075
-0.0355845
-0.0358355
-0.0361127
-0.0363823
-0.036588
-0.0367482
-0.0367938
-0.036709
-0.0364904
-0.0361524
-0.0357627
-0.0324897
-0.0326854
-0.032949
-0.0332244
-0.0334756
-0.0336593
-0.0337019
-0.0335644
-0.0332232
-0.0327225
-0.0321691
-0.0316753
-0.029223
-0.02947
-0.0297462
-0.0300041
-0.0302075
-0.0303262
-0.0302799
-0.0300199
-0.0295139
-0.0288381
-0.0281667
-0.0276447
-0.0257626
-0.0260058
-0.0262493
-0.0264594
-0.0266143
-0.0266336
-0.0264932
-0.0261459
-0.0255643
-0.0248344
-0.024158
-0.0236918
-0.02209
-0.0222714
-0.0224255
-0.0225339
-0.0225859
-0.0225174
-0.0223095
-0.0219312
-0.0213699
-0.0207068
-0.0201329
-0.0198023
-0.0182439
-0.0182733
-0.01826
-0.0182283
-0.0181491
-0.0179792
-0.0177399
-0.017398
-0.0169589
-0.0164861
-0.0161257
-0.0160057
-0.0142739
-0.0140377
-0.0138151
-0.0136107
-0.0133196
-0.0130599
-0.0128531
-0.0126211
-0.0123932
-0.0122201
-0.0121764
-0.012337
-0.0101728
-0.00957388
-0.00921155
-0.0088905
-0.00853399
-0.00814951
-0.00782792
-0.00777664
-0.00778862
-0.00795629
-0.00828096
-0.00876971
-0.00676042
-0.00553984
-0.00490104
-0.00466741
-0.00429159
-0.00378621
-0.0033915
-0.00328965
-0.00349295
-0.00391268
-0.00453603
-0.00532329
-0.0459176
-0.0460564
-0.0461514
-0.0462075
-0.0462485
-0.0463133
-0.0464434
-0.0466608
-0.0469437
-0.0471642
-0.0471926
-0.0470549
-0.0426204
-0.0424592
-0.0423012
-0.0422026
-0.0421894
-0.0422712
-0.0425524
-0.0430422
-0.0436309
-0.0441393
-0.0444277
-0.0444865
-0.0393044
-0.0390521
-0.0388719
-0.0387913
-0.0388569
-0.0391213
-0.0395068
-0.0401227
-0.0409711
-0.0419207
-0.0426084
-0.0427317
-0.0353962
-0.035103
-0.0349181
-0.0348746
-0.0350014
-0.0353071
-0.0358264
-0.0365591
-0.0375615
-0.0388428
-0.0400606
-0.0405636
-0.0313039
-0.0310764
-0.0309978
-0.031064
-0.0312701
-0.0316312
-0.0321644
-0.0329187
-0.0339363
-0.0352974
-0.036946
-0.0380516
-0.0273193
-0.027175
-0.0271821
-0.0273165
-0.0275678
-0.0279435
-0.028482
-0.0292111
-0.0301705
-0.0314107
-0.0331714
-0.0350573
-0.0234624
-0.023421
-0.0235142
-0.0237097
-0.0239957
-0.024379
-0.0248844
-0.0255408
-0.0263942
-0.0274544
-0.0290492
-0.0315039
-0.0197235
-0.0198197
-0.0200186
-0.0202812
-0.0205948
-0.0209651
-0.0214212
-0.0219589
-0.0226642
-0.0235515
-0.0248911
-0.0274321
-0.0161236
-0.0163875
-0.0167122
-0.0170543
-0.0173986
-0.0177419
-0.0180876
-0.0185125
-0.0190068
-0.0196535
-0.0207203
-0.0229382
-0.0126886
-0.0131413
-0.0136082
-0.0140431
-0.0144278
-0.0147576
-0.0150376
-0.0152897
-0.0154671
-0.015663
-0.0161899
-0.0177054
-0.00938591
-0.010047
-0.0106736
-0.0112211
-0.0116726
-0.0120222
-0.0122556
-0.0123267
-0.0121641
-0.0116932
-0.0111347
-0.0108856
-0.00620595
-0.00709665
-0.00791895
-0.00862899
-0.00920728
-0.00963472
-0.00986464
-0.00980348
-0.00936644
-0.00832478
-0.00641969
-0.00314009
-0.0439539
-0.0439416
-0.0439701
-0.0440388
-0.0441416
-0.0442816
-0.0444669
-0.0447
-0.0449445
-0.0451783
-0.0453842
-0.0455666
-0.0405055
-0.0406282
-0.0408168
-0.041017
-0.0412291
-0.0414783
-0.0417641
-0.0420997
-0.0424162
-0.0426124
-0.042646
-0.0425612
-0.0386225
-0.0386911
-0.0388223
-0.0390117
-0.0392417
-0.0394486
-0.0396345
-0.0397742
-0.0398636
-0.0398363
-0.039652
-0.0393663
-0.0355356
-0.0357315
-0.035967
-0.036204
-0.0364197
-0.036596
-0.0367074
-0.036702
-0.0365697
-0.036303
-0.0359271
-0.0355191
-0.0326545
-0.0328324
-0.0330715
-0.033311
-0.0335177
-0.0336396
-0.0336197
-0.0334175
-0.0330202
-0.0324824
-0.031917
-0.0314306
-0.0293249
-0.0295726
-0.0298323
-0.0300586
-0.0302174
-0.0302799
-0.0301713
-0.0298418
-0.0292759
-0.0285727
-0.0279087
-0.027412
-0.0258728
-0.0260992
-0.026321
-0.0264996
-0.0266014
-0.0265722
-0.0263746
-0.0259632
-0.0253255
-0.0245746
-0.0239151
-0.0234811
-0.022186
-0.0223553
-0.0224895
-0.0225791
-0.0225828
-0.0224651
-0.0222045
-0.0217707
-0.021162
-0.0204818
-0.0199258
-0.0196259
-0.0183348
-0.0183559
-0.0183298
-0.0182674
-0.0181728
-0.0179561
-0.0176718
-0.0172857
-0.016809
-0.016321
-0.0159734
-0.0158762
-0.0143557
-0.0141182
-0.0138872
-0.0136661
-0.0133608
-0.0130881
-0.0128443
-0.0125791
-0.0123223
-0.0121341
-0.0120932
-0.0122632
-0.01024
-0.00964699
-0.00928435
-0.00896647
-0.00860126
-0.00821033
-0.00788078
-0.00781426
-0.00780496
-0.00795773
-0.00827489
-0.0087579
-0.00678998
-0.00559449
-0.00497499
-0.00475138
-0.00438468
-0.00388135
-0.00348729
-0.00337627
-0.0035687
-0.00398074
-0.00459415
-0.0053664
-0.0457288
-0.0458569
-0.0459418
-0.045992
-0.0460327
-0.0461032
-0.0462437
-0.0464762
-0.0467798
-0.0470173
-0.0470515
-0.0469121
-0.042416
-0.042239
-0.0420703
-0.0419706
-0.0419644
-0.0420569
-0.0423629
-0.0428861
-0.0435024
-0.0440242
-0.0443121
-0.0443631
-0.0390659
-0.0388126
-0.0386415
-0.0385769
-0.0386598
-0.0389364
-0.0393412
-0.0399787
-0.0408463
-0.0418102
-0.0425041
-0.0426209
-0.0351521
-0.0348718
-0.0347079
-0.0346886
-0.034839
-0.0351681
-0.0356978
-0.0364422
-0.0374544
-0.0387433
-0.0399663
-0.0404663
-0.031077
-0.0308722
-0.0308175
-0.0309049
-0.0311281
-0.0315021
-0.0320523
-0.0328195
-0.0338466
-0.0352104
-0.0368581
-0.0379593
-0.0271143
-0.0269945
-0.0270225
-0.027175
-0.0274432
-0.0278374
-0.0283864
-0.0291278
-0.030098
-0.0313405
-0.0330961
-0.0349804
-0.0232806
-0.0232607
-0.0233706
-0.0235808
-0.0238814
-0.0242798
-0.0247989
-0.0254721
-0.0263397
-0.0274042
-0.0289938
-0.0314512
-0.0195708
-0.0196814
-0.0198905
-0.0201636
-0.0204895
-0.0208741
-0.0213407
-0.0219065
-0.0226315
-0.0235277
-0.0248682
-0.027422
-0.0160087
-0.0162774
-0.0166045
-0.0169521
-0.017307
-0.0176681
-0.0180442
-0.0184848
-0.0189988
-0.0196611
-0.0207471
-0.0229973
-0.0126176
-0.0130653
-0.0135266
-0.0139614
-0.0143536
-0.0146997
-0.0150054
-0.0152852
-0.0154836
-0.0157014
-0.0162692
-0.0178398
-0.0093633
-0.0100087
-0.0106214
-0.0111626
-0.0116182
-0.0119828
-0.0122386
-0.0123244
-0.012205
-0.0117658
-0.0112647
-0.0110699
-0.00622758
-0.00709313
-0.00789363
-0.00859186
-0.00917203
-0.00961522
-0.00987091
-0.00984284
-0.00943829
-0.00843289
-0.00659413
-0.00338628
-0.00259429
-0.00260249
-0.00228749
-0.00197558
-0.0015044
-0.000858533
-0.000246666
-5.40843e-05
-0.000215882
-0.000675519
-0.00140873
-0.00235359
-0.00153906
-0.00155795
-0.00121785
-0.000665503
-5.20976e-05
0.000605991
0.00117109
0.00164357
0.00169531
0.00135732
0.000662638
-0.000317272
-0.000924893
-0.000618165
-0.000174621
0.000423587
0.00103647
0.0016324
0.00216753
0.00249552
0.00249332
0.00216195
0.00153521
0.000639147
-0.000557538
-5.57261e-05
0.000411378
0.000952074
0.00150493
0.0020297
0.00246838
0.00278613
0.00275253
0.00240198
0.00179961
0.000981292
-0.00342909
-0.00453424
-0.00557385
-0.00648349
-0.00722049
-0.0077392
-0.00797209
-0.00783108
-0.00723743
-0.00608729
-0.0044424
-0.00278324
-0.0014856
-0.00272706
-0.00392139
-0.00497256
-0.00580703
-0.00636029
-0.00657014
-0.00638097
-0.00574778
-0.00466819
-0.0032835
-0.00190545
-0.000490869
-0.00174301
-0.00296541
-0.00403809
-0.00487071
-0.00539626
-0.00556613
-0.00535169
-0.0047429
-0.00377613
-0.0025864
-0.00144586
-8.74518e-05
-0.00129373
-0.00245473
-0.00345895
-0.00422476
-0.00469303
-0.00482795
-0.00461644
-0.00406936
-0.00322672
-0.00219857
-0.00118436
-0.00254034
-0.0025962
-0.00231499
-0.0020422
-0.00159999
-0.000968617
-0.000368563
-0.000150538
-0.000311248
-0.000764294
-0.0014886
-0.00241843
-0.00144783
-0.00152208
-0.00122286
-0.00071381
-0.000133263
0.000510413
0.00108547
0.00154114
0.00159714
0.0012719
0.000593077
-0.000370064
-0.000817886
-0.000573515
-0.000173231
0.000385277
0.000967344
0.0015517
0.00210346
0.00241307
0.00241425
0.00209387
0.00148243
0.00060132
-0.000452997
-1.72768e-05
0.000406969
0.000916683
0.00144785
0.00196023
0.00238148
0.00272434
0.00270006
0.00236254
0.00177153
0.000956712
-0.0034702
-0.00454662
-0.00556111
-0.00645753
-0.00719771
-0.00773564
-0.00799863
-0.00788293
-0.00733377
-0.00621198
-0.0045995
-0.00297436
-0.00151767
-0.00273408
-0.00390708
-0.00494972
-0.00579331
-0.00637342
-0.00662455
-0.00648746
-0.00587181
-0.00480351
-0.00342453
-0.00207537
-0.000512377
-0.00174503
-0.00295375
-0.00402597
-0.00487526
-0.00543475
-0.00565222
-0.00548678
-0.00489947
-0.00392754
-0.00271704
-0.00158303
-0.000109422
-0.00130536
-0.00246214
-0.003474
-0.00426305
-0.00477144
-0.00496034
-0.00480343
-0.00427845
-0.0034086
-0.00233774
-0.00132338
)
;

boundaryField
{
    rotor
    {
        type            zeroGradient;
    }
    stator
    {
        type            zeroGradient;
    }
    AMI1
    {
        type            cyclicAMI;
        value           nonuniform List<scalar> 
48
(
-0.000511884
3.55331e-05
0.000531877
0.00107444
0.00161934
0.00212708
0.00254514
0.00283574
0.00278123
0.00242784
0.00183314
0.00103765
2.72842e-06
-0.00115557
-0.00226855
-0.00322868
-0.00395974
-0.0044067
-0.00453724
-0.0043417
-0.00383416
-0.00305316
-0.00209863
-0.00114155
-0.000409119
7.35281e-05
0.000527536
0.00104074
0.00156584
0.00206234
0.00247007
0.00278343
0.00273697
0.00239677
0.0018123
0.00101673
-2.11011e-05
-0.00117498
-0.00228748
-0.0032571
-0.00401153
-0.00449697
-0.00467846
-0.0045335
-0.00404784
-0.003242
-0.00225849
-0.00130097
)
;
    }
    AMI2
    {
        type            cyclicAMI;
        value           nonuniform 0();
    }
    front
    {
        type            empty;
    }
    back
    {
        type            empty;
    }
    procBoundary2to3
    {
        type            processor;
        value           nonuniform List<scalar> 8(-0.0027323 -0.00163247 -0.000975536 -0.000605117 -0.00296283 -0.00209927 -0.00164105 -0.00137276);
    }
}


// ************************************************************************* //
