/*--------------------------------*- C++ -*----------------------------------*\
| =========                 |                                                 |
| \\      /  F ield         | OpenFOAM: The Open Source CFD Toolbox           |
|  \\    /   O peration     | Version:  v1806                                 |
|   \\  /    A nd           | Web:      www.OpenFOAM.com                      |
|    \\/     M anipulation  |                                                 |
\*---------------------------------------------------------------------------*/
FoamFile
{
    version     2.0;
    format      ascii;
    class       surfaceScalarField;
    location    "5";
    object      phi;
}
// * * * * * * * * * * * * * * * * * * * * * * * * * * * * * * * * * * * * * //

dimensions      [0 3 -1 0 0 0 0];
oriented        oriented;


internalField   nonuniform List<scalar> 
1460
(
7.03568e-09
-7.03564e-09
8.30569e-08
-7.60212e-08
1.58927e-07
-7.58704e-08
2.52345e-07
-9.34176e-08
3.45793e-07
-9.34483e-08
4.31929e-07
-8.61356e-08
5.09885e-07
-7.79559e-08
5.70401e-07
-6.05164e-08
5.96963e-07
-2.65616e-08
5.67436e-07
2.95269e-08
4.82843e-07
8.45928e-08
1.25651e-07
3.57192e-07
-5.77768e-08
5.07412e-08
-4.64024e-08
-8.73955e-08
5.8393e-09
-1.28112e-07
5.80459e-08
-1.45624e-07
1.05498e-07
-1.40901e-07
1.43424e-07
-1.24061e-07
1.69338e-07
-1.0387e-07
1.66322e-07
-5.74998e-08
1.10327e-07
2.94326e-08
-2.05099e-08
1.60364e-07
-2.31132e-07
2.95215e-07
3.9535e-07
-5.0083e-07
1.13456e-07
-6.27142e-08
1.61939e-07
-1.35879e-07
2.06952e-07
-1.73125e-07
2.43176e-07
-1.81848e-07
2.58255e-07
-1.5598e-07
2.37443e-07
-1.03249e-07
1.67198e-07
-3.36248e-08
3.91884e-08
7.05099e-08
-1.51647e-07
2.20268e-07
-3.9811e-07
4.06827e-07
-6.81427e-07
5.78531e-07
6.84376e-07
-9.70453e-07
4.88631e-08
-1.11577e-07
1.12968e-07
-1.99983e-07
1.5872e-07
-2.18878e-07
1.93637e-07
-2.16764e-07
2.20415e-07
-1.82758e-07
2.14437e-07
-9.72703e-08
1.469e-07
3.39119e-08
2.15329e-09
2.15257e-07
-2.2351e-07
4.45932e-07
-5.03991e-07
6.87308e-07
-7.98021e-07
8.72561e-07
9.55879e-07
-1.06952e-06
5.36305e-08
-1.65208e-07
1.09457e-07
-2.55809e-07
1.5137e-07
-2.60792e-07
1.79202e-07
-2.44596e-07
1.84803e-07
-1.88359e-07
1.67615e-07
-8.00829e-08
1.11856e-07
8.96718e-08
-5.72629e-09
3.32839e-07
-1.9458e-07
6.34785e-07
-4.31509e-07
9.24237e-07
-6.74288e-07
1.11534e-06
1.1666e-06
-8.8501e-07
4.10644e-08
-2.06272e-07
7.12244e-08
-2.85969e-07
9.67766e-08
-2.86344e-07
1.19039e-07
-2.66859e-07
1.32687e-07
-2.02006e-07
1.29222e-07
-7.6618e-08
1.01502e-07
1.17391e-07
3.46392e-08
3.99702e-07
-7.97215e-08
7.49146e-07
-2.31576e-07
1.07609e-06
-3.91264e-07
1.27503e-06
1.30189e-06
-5.26553e-07
1.53045e-08
-2.21576e-07
1.09465e-08
-2.81611e-07
1.22429e-08
-2.8764e-07
2.3334e-08
-2.7795e-07
4.37589e-08
-2.22431e-07
7.0677e-08
-1.03536e-07
9.25169e-08
9.55513e-08
1.00397e-07
3.91821e-07
8.5461e-08
7.64082e-07
4.24994e-08
1.11905e-06
-1.96672e-08
1.33719e-06
1.36423e-06
-8.20069e-08
-2.81887e-08
-1.93388e-07
-7.74662e-08
-2.32334e-07
-1.04633e-07
-2.60473e-07
-1.02477e-07
-2.80106e-07
-6.55897e-08
-2.59319e-07
6.39268e-10
-1.69765e-07
8.32183e-08
1.29723e-08
1.74389e-07
3.00651e-07
2.6549e-07
6.72981e-07
3.39552e-07
1.04499e-06
3.82222e-07
1.29452e-06
1.35272e-06
3.93734e-07
-9.5326e-08
-9.80617e-08
-1.84279e-07
-1.43381e-07
-2.23403e-07
-2.21349e-07
-2.16485e-07
-2.87023e-07
-1.58937e-07
-3.16867e-07
-5.07251e-08
-2.77977e-07
9.23189e-08
-1.30072e-07
2.59864e-07
1.33107e-07
4.42288e-07
4.90556e-07
6.1978e-07
8.675e-07
7.62352e-07
1.15195e-06
1.26535e-06
8.49719e-07
-1.73446e-07
7.53847e-08
-2.63666e-07
-5.31609e-08
-2.75956e-07
-2.0906e-07
-2.38553e-07
-3.24426e-07
-1.30228e-07
-4.25192e-07
1.60949e-08
-4.243e-07
1.92169e-07
-3.06146e-07
3.99319e-07
-7.40427e-08
6.31028e-07
2.58847e-07
8.702e-07
6.28327e-07
1.08233e-06
9.3982e-07
1.11625e-06
1.23143e-06
-1.3742e-07
2.12805e-07
-9.16551e-08
-9.89259e-08
-2.93988e-08
-2.71316e-07
8.3362e-08
-4.37186e-07
2.26208e-07
-5.68038e-07
3.92528e-07
-5.9062e-07
5.55517e-07
-4.69134e-07
7.30574e-07
-2.491e-07
9.31064e-07
5.8357e-08
1.15408e-06
4.05316e-07
1.37263e-06
7.21269e-07
9.44655e-07
1.54422e-06
6.55285e-07
-4.4248e-07
1.01625e-06
-4.59893e-07
1.20644e-06
-4.61503e-07
1.32535e-06
-5.56092e-07
1.38149e-06
-6.2418e-07
1.40483e-06
-6.13964e-07
1.4428e-06
-5.07107e-07
1.49435e-06
-3.00649e-07
1.57551e-06
-2.28005e-08
1.69279e-06
2.88041e-07
1.83548e-06
5.78577e-07
1.97292e-06
8.0721e-07
2.01207e-07
1.55985e-07
2.71504e-08
1.74057e-07
-1.41333e-07
1.68483e-07
-2.71088e-07
1.29755e-07
-3.33159e-07
6.20708e-08
-3.17257e-07
-1.59021e-08
-2.27797e-07
-8.94599e-08
-7.3762e-08
-1.54035e-07
7.10303e-08
-1.44792e-07
1.21829e-07
-5.07983e-08
8.15438e-08
4.02847e-08
8.15438e-08
-7.88095e-07
4.4325e-07
-1.04517e-06
4.31129e-07
-1.23361e-06
3.56928e-07
-1.33115e-06
2.27293e-07
-1.32774e-06
5.86607e-08
-1.20099e-06
-1.42657e-07
-9.89797e-07
-3.00648e-07
-7.15789e-07
-4.28043e-07
-4.07598e-07
-4.52984e-07
-1.2658e-07
-3.31816e-07
3.35975e-08
-1.19893e-07
1.15141e-07
-1.23159e-06
7.04391e-07
-1.44089e-06
6.40422e-07
-1.58749e-06
5.03529e-07
-1.6686e-06
3.08409e-07
-1.67939e-06
6.94506e-08
-1.62947e-06
-1.92582e-07
-1.46067e-06
-4.69441e-07
-1.18073e-06
-7.07991e-07
-7.87651e-07
-8.4606e-07
-3.46088e-07
-7.7338e-07
-5.33513e-08
-4.12629e-07
6.17899e-08
-1.2956e-06
9.3047e-07
-1.46574e-06
8.10559e-07
-1.57823e-06
6.16023e-07
-1.63759e-06
3.67768e-07
-1.65349e-06
8.53516e-08
-1.63021e-06
-2.15863e-07
-1.56605e-06
-5.33605e-07
-1.41719e-06
-8.56847e-07
-1.12516e-06
-1.1381e-06
-6.65536e-07
-1.233e-06
-1.76019e-07
-9.02146e-07
-1.14229e-07
-1.04142e-06
1.08688e-06
-1.13794e-06
9.07078e-07
-1.18452e-06
6.62602e-07
-1.20241e-06
3.85659e-07
-1.21401e-06
9.69546e-08
-1.23295e-06
-1.96927e-07
-1.25574e-06
-5.10811e-07
-1.25775e-06
-8.54842e-07
-1.16326e-06
-1.23258e-06
-8.59313e-07
-1.53695e-06
-3.43252e-07
-1.41821e-06
-4.57481e-07
-6.19013e-07
1.17934e-06
-6.698e-07
9.57865e-07
-6.95484e-07
6.88285e-07
-7.15194e-07
4.05369e-07
-7.40988e-07
1.22748e-07
-7.80858e-07
-1.57057e-07
-8.4119e-07
-4.50479e-07
-9.18581e-07
-7.77452e-07
-9.73728e-07
-1.17743e-06
-8.81704e-07
-1.62898e-06
-4.86789e-07
-1.81312e-06
-9.4427e-07
-1.30678e-07
1.22801e-06
-1.66872e-07
9.94058e-07
-2.02762e-07
7.24176e-07
-2.49186e-07
4.51794e-07
-3.10997e-07
1.84558e-07
-3.89246e-07
-7.88077e-08
-4.84505e-07
-3.55219e-07
-5.89112e-07
-6.72845e-07
-6.9671e-07
-1.06983e-06
-7.4716e-07
-1.57853e-06
-5.26632e-07
-2.03365e-06
-1.4709e-06
3.82431e-07
1.23931e-06
3.5264e-07
1.02385e-06
3.02602e-07
7.74213e-07
2.28218e-07
5.26178e-07
1.25582e-07
2.87194e-07
-3.13315e-09
4.99073e-08
-1.49588e-07
-2.08765e-07
-2.85435e-07
-5.36998e-07
-4.03227e-07
-9.52042e-07
-5.04251e-07
-1.4775e-06
-4.50551e-07
-2.08735e-06
-1.92145e-06
8.79443e-07
1.20959e-06
8.5858e-07
1.04471e-06
7.9512e-07
8.37673e-07
6.92916e-07
6.28383e-07
5.53218e-07
4.26892e-07
3.86564e-07
2.16561e-07
2.17542e-07
-3.97421e-08
6.25459e-08
-3.82002e-07
-6.37025e-08
-8.25793e-07
-1.73519e-07
-1.36769e-06
-2.53679e-07
-2.00719e-06
-2.17513e-06
1.29998e-06
1.14104e-06
1.29073e-06
1.05396e-06
1.21772e-06
9.10687e-07
1.09769e-06
7.48409e-07
9.50377e-07
5.74207e-07
8.00053e-07
3.66885e-07
6.62533e-07
9.77773e-08
5.34785e-07
-2.54254e-07
4.04767e-07
-6.95775e-07
2.56153e-07
-1.21907e-06
6.86958e-08
-1.81973e-06
-2.10644e-06
1.63854e-06
1.04673e-06
1.65116e-06
1.04134e-06
1.59972e-06
9.62125e-07
1.51333e-06
8.34797e-07
1.42327e-06
6.6427e-07
1.3508e-06
4.39356e-07
1.29562e-06
1.52953e-07
1.22928e-06
-1.87917e-07
1.10567e-06
-5.72163e-07
8.69514e-07
-9.82916e-07
5.06168e-07
-1.45639e-06
-1.60027e-06
2.07293e-06
9.46721e-07
2.1236e-06
9.90675e-07
2.13704e-06
9.48681e-07
2.13825e-06
8.33585e-07
2.14894e-06
6.53586e-07
2.17377e-06
4.14527e-07
2.19721e-06
1.29504e-07
2.18845e-06
-1.79148e-07
2.10193e-06
-4.85646e-07
1.84839e-06
-7.29376e-07
1.21078e-06
-8.1878e-07
-3.89487e-07
6.21853e-08
-6.21853e-08
1.53883e-07
-9.16979e-08
2.43191e-07
-8.93081e-08
3.25514e-07
-8.23229e-08
4.02245e-07
-7.67309e-08
4.75611e-07
-7.33662e-08
5.44189e-07
-6.85774e-08
5.95302e-07
-5.1113e-08
6.11268e-07
-1.59665e-08
5.7195e-07
3.93177e-08
4.81719e-07
9.02312e-08
1.29589e-07
3.5213e-07
-2.26773e-08
-3.9508e-08
1.25834e-09
-1.15634e-07
3.78155e-08
-1.25865e-07
8.10996e-08
-1.25607e-07
1.24442e-07
-1.20074e-07
1.58061e-07
-1.06985e-07
1.78422e-07
-8.89387e-08
1.67349e-07
-4.004e-08
1.0075e-07
5.06332e-08
-4.29969e-08
1.83064e-07
-2.67324e-07
3.14558e-07
4.1092e-07
-5.48655e-07
6.06541e-08
-1.00162e-07
1.1351e-07
-1.68489e-07
1.64143e-07
-1.76498e-07
2.0626e-07
-1.67724e-07
2.18243e-07
-1.32057e-07
1.9777e-07
-8.65117e-08
1.24042e-07
-1.52106e-08
-8.09762e-09
9.20991e-08
-2.0521e-07
2.47746e-07
-4.58677e-07
4.36531e-07
-7.47266e-07
6.03148e-07
7.00743e-07
-1.03709e-06
3.85402e-08
-1.38702e-07
8.39523e-08
-2.13901e-07
1.29091e-07
-2.21637e-07
1.68338e-07
-2.06972e-07
2.00655e-07
-1.64374e-07
1.82765e-07
-6.86219e-08
1.02558e-07
6.49966e-08
-5.49452e-08
2.49602e-07
-2.89712e-07
4.82513e-07
-5.72227e-07
7.19046e-07
-8.61285e-07
8.92205e-07
9.61968e-07
-1.12251e-06
3.68461e-08
-1.75548e-07
8.58092e-08
-2.62865e-07
1.23612e-07
-2.59439e-07
1.49352e-07
-2.32712e-07
1.52683e-07
-1.67704e-07
1.3584e-07
-5.17788e-08
7.48284e-08
1.26008e-07
-5.18103e-08
3.76241e-07
-2.46828e-07
6.7753e-07
-4.81716e-07
9.53935e-07
-7.14289e-07
1.12478e-06
1.1576e-06
-9.09923e-07
3.45483e-08
-2.10097e-07
5.77655e-08
-2.86082e-07
7.92082e-08
-2.80882e-07
9.99936e-08
-2.53497e-07
1.11216e-07
-1.78927e-07
1.07465e-07
-4.80274e-08
7.84e-08
1.55072e-07
8.97969e-09
4.45661e-07
-1.06416e-07
7.92926e-07
-2.54021e-07
1.10154e-06
-4.03456e-07
1.27421e-06
1.27945e-06
-5.25309e-07
1.14607e-08
-2.21558e-07
4.07901e-09
-2.787e-07
2.91856e-09
-2.79722e-07
1.28162e-08
-2.63395e-07
3.48079e-08
-2.00918e-07
6.27796e-08
-7.59992e-08
8.6947e-08
1.30905e-07
9.80152e-08
4.34593e-07
8.63814e-08
8.0456e-07
4.76372e-08
1.14028e-06
-8.13553e-09
1.32999e-06
1.3342e-06
-6.28833e-08
-2.90656e-08
-1.92492e-07
-7.87562e-08
-2.2901e-07
-1.05832e-07
-2.52646e-07
-1.02858e-07
-2.66368e-07
-6.30026e-08
-2.40774e-07
6.66423e-09
-1.45666e-07
9.4466e-08
4.31031e-08
1.92885e-07
3.36173e-07
2.90694e-07
7.06751e-07
3.68542e-07
1.06244e-06
4.12669e-07
1.28586e-06
1.3222e-06
4.24673e-07
-9.29123e-08
-9.95796e-08
-1.81532e-07
-1.4039e-07
-2.21994e-07
-2.12185e-07
-2.12946e-07
-2.75416e-07
-1.5098e-07
-3.0274e-07
-3.52496e-08
-2.61396e-07
1.16485e-07
-1.08632e-07
2.93786e-07
1.58872e-07
4.85274e-07
5.15264e-07
6.67057e-07
8.80653e-07
8.08142e-07
1.14477e-06
1.23964e-06
8.907e-07
-1.69599e-07
7.00194e-08
-2.62329e-07
-4.76598e-08
-2.78151e-07
-1.96363e-07
-2.39839e-07
-3.13728e-07
-1.27965e-07
-4.14615e-07
2.72654e-08
-4.16626e-07
2.17369e-07
-2.98735e-07
4.38848e-07
-6.26067e-08
6.82988e-07
2.71123e-07
9.28905e-07
6.34736e-07
1.14017e-06
9.33511e-07
1.09689e-06
1.28291e-06
-1.38728e-07
2.08747e-07
-9.97887e-08
-8.6599e-08
-3.84559e-08
-2.57695e-07
7.16268e-08
-4.23811e-07
2.18716e-07
-5.61704e-07
3.92305e-07
-5.90216e-07
5.66895e-07
-4.73324e-07
7.58334e-07
-2.54047e-07
9.7634e-07
5.31175e-08
1.21167e-06
3.99405e-07
1.43419e-06
7.10991e-07
9.28625e-07
1.60246e-06
6.30131e-07
-4.21384e-07
9.87723e-07
-4.4419e-07
1.18244e-06
-4.52412e-07
1.30932e-06
-5.50688e-07
1.37069e-06
-6.23082e-07
1.3981e-06
-6.1762e-07
1.44077e-06
-5.15995e-07
1.50149e-06
-3.14771e-07
1.59689e-06
-4.22743e-08
1.72897e-06
2.67324e-07
1.88151e-06
5.58446e-07
2.02163e-06
7.88503e-07
1.91191e-07
1.60939e-07
1.09326e-08
1.80259e-07
-1.62939e-07
1.73872e-07
-2.95139e-07
1.322e-07
-3.55876e-07
6.07375e-08
-3.35603e-07
-2.02731e-08
-2.38517e-07
-9.70864e-08
-7.37462e-08
-1.64771e-07
7.85334e-08
-1.5228e-07
1.29856e-07
-5.13229e-08
8.61116e-08
4.37447e-08
8.61116e-08
-8.42845e-07
4.55129e-07
-1.10119e-06
4.38601e-07
-1.28635e-06
3.59031e-07
-1.37777e-06
2.23625e-07
-1.36629e-06
4.92582e-08
-1.23188e-06
-1.54689e-07
-1.01168e-06
-3.17282e-07
-7.30162e-07
-4.46291e-07
-4.13882e-07
-4.68559e-07
-1.25659e-07
-3.39546e-07
3.63527e-08
-1.18267e-07
1.22464e-07
-1.29446e-06
7.12502e-07
-1.49692e-06
6.41054e-07
-1.63566e-06
4.97778e-07
-1.7096e-06
2.97561e-07
-1.7153e-06
5.496e-08
-1.65738e-06
-2.1261e-07
-1.48524e-06
-4.89422e-07
-1.20195e-06
-7.29583e-07
-8.03299e-07
-8.67206e-07
-3.53276e-07
-7.8957e-07
-5.41524e-08
-4.1739e-07
6.83119e-08
-1.3355e-06
9.2549e-07
-1.4922e-06
7.97752e-07
-1.59309e-06
5.9867e-07
-1.64435e-06
3.48825e-07
-1.65618e-06
6.67856e-08
-1.63466e-06
-2.34123e-07
-1.57284e-06
-5.51249e-07
-1.42739e-06
-8.7503e-07
-1.13668e-06
-1.15792e-06
-6.73889e-07
-1.25236e-06
-1.7792e-07
-9.1336e-07
-1.09608e-07
-1.05039e-06
1.06596e-06
-1.13358e-06
8.80946e-07
-1.17168e-06
6.36767e-07
-1.18638e-06
3.63523e-07
-1.19916e-06
7.9572e-08
-1.22145e-06
-2.11839e-07
-1.25036e-06
-5.22333e-07
-1.2591e-06
-8.6629e-07
-1.16967e-06
-1.24735e-06
-8.66587e-07
-1.55544e-06
-3.46844e-07
-1.4331e-06
-4.56451e-07
-6.05414e-07
1.14606e-06
-6.48407e-07
9.23939e-07
-6.71872e-07
6.60232e-07
-6.93493e-07
3.85144e-07
-7.23521e-07
1.096e-07
-7.69454e-07
-1.65906e-07
-8.36533e-07
-4.55254e-07
-9.20722e-07
-7.82101e-07
-9.80982e-07
-1.18709e-06
-8.90111e-07
-1.64631e-06
-4.91585e-07
-1.83163e-06
-9.48036e-07
-1.05412e-07
1.18859e-06
-1.39031e-07
9.57558e-07
-1.75993e-07
6.97194e-07
-2.26015e-07
4.35166e-07
-2.93236e-07
1.7682e-07
-3.79246e-07
-7.98959e-08
-4.81738e-07
-3.52762e-07
-5.93156e-07
-6.70684e-07
-7.06013e-07
-1.07423e-06
-7.58157e-07
-1.59417e-06
-5.33871e-07
-2.05592e-06
-1.48191e-06
4.13108e-07
1.20015e-06
3.81966e-07
9.887e-07
3.29432e-07
7.49728e-07
2.5116e-07
5.13438e-07
1.42802e-07
2.85178e-07
6.66372e-09
5.62424e-08
-1.45481e-07
-2.00617e-07
-2.86896e-07
-5.29269e-07
-4.0936e-07
-9.51771e-07
-5.14325e-07
-1.4892e-06
-4.60718e-07
-2.10952e-06
-1.94263e-06
9.14944e-07
1.17591e-06
8.89271e-07
1.01437e-06
8.21601e-07
8.17398e-07
7.14808e-07
6.20231e-07
5.69933e-07
4.30054e-07
3.98416e-07
2.27759e-07
2.24321e-07
-2.65225e-08
6.63203e-08
-3.71268e-07
-6.30349e-08
-8.22415e-07
-1.77272e-07
-1.37497e-06
-2.62522e-07
-2.02427e-06
-2.20515e-06
1.34338e-06
1.11545e-06
1.32688e-06
1.03087e-06
1.24798e-06
8.96294e-07
1.12281e-06
7.45401e-07
9.70869e-07
5.81997e-07
8.1647e-07
3.82159e-07
6.76359e-07
1.13588e-07
5.44474e-07
-2.39382e-07
4.10707e-07
-6.88648e-07
2.57209e-07
-1.22147e-06
6.47253e-08
-1.83179e-06
-2.14042e-06
1.68971e-06
1.02819e-06
1.69463e-06
1.02595e-06
1.63619e-06
9.54729e-07
1.5437e-06
8.37896e-07
1.44845e-06
6.77245e-07
1.3711e-06
4.5951e-07
1.31049e-06
1.74196e-07
1.24016e-06
-1.69053e-07
1.11103e-06
-5.59518e-07
8.69749e-07
-9.80185e-07
5.04629e-07
-1.46667e-06
-1.63579e-06
2.11866e-06
9.31171e-07
2.16335e-06
9.81265e-07
2.16978e-06
9.48292e-07
2.16396e-06
8.43716e-07
2.16794e-06
6.73272e-07
2.18654e-06
4.4091e-07
2.20287e-06
1.57863e-07
2.18809e-06
-1.54276e-07
2.09633e-06
-4.67757e-07
1.84029e-06
-7.24148e-07
1.20549e-06
-8.31866e-07
-4.30303e-07
3.25965e-06
-5.04404e-07
3.35113e-06
-5.5138e-07
3.43314e-06
-5.43508e-07
3.42043e-06
-5.43381e-07
3.31769e-06
-5.2144e-07
3.14574e-06
-4.42022e-07
2.95252e-06
-3.13883e-07
2.77732e-06
-1.25451e-07
2.6825e-06
7.20227e-08
2.67189e-06
2.98649e-07
2.72011e-06
5.30357e-07
7.29626e-07
2.7977e-06
4.57872e-06
-5.95343e-07
4.634e-06
-6.06658e-07
4.68351e-06
-5.93014e-07
4.6976e-06
-5.57475e-07
4.67182e-06
-4.95659e-07
4.61385e-06
-3.84048e-07
4.51899e-06
-2.19029e-07
4.40175e-06
-8.2101e-09
4.2686e-06
2.0517e-07
4.15808e-06
4.09174e-07
4.09894e-06
5.89499e-07
7.32781e-07
4.09578e-06
5.78875e-06
-6.34555e-07
5.80979e-06
-6.27703e-07
5.82028e-06
-6.03505e-07
5.81282e-06
-5.5001e-07
5.78449e-06
-4.67329e-07
5.75082e-06
-3.50375e-07
5.72435e-06
-1.92561e-07
5.70914e-06
6.99265e-09
5.69016e-06
2.24151e-07
5.66356e-06
4.35774e-07
5.64023e-06
6.12831e-07
7.38515e-07
5.6345e-06
6.92802e-06
6.92827e-06
6.91993e-06
6.90067e-06
6.86884e-06
6.82936e-06
6.79709e-06
6.78787e-06
6.80144e-06
6.83677e-06
6.8903e-06
6.95613e-06
2.88063e-06
8.63784e-07
2.95706e-06
9.14252e-07
3.02885e-06
8.7689e-07
3.10406e-06
7.58372e-07
3.18555e-06
5.72098e-07
3.26422e-06
3.35861e-07
3.3214e-06
7.23229e-08
3.3362e-06
-1.93954e-07
3.28835e-06
-4.3779e-07
3.17589e-06
-6.1692e-07
3.05367e-06
-6.96558e-07
-5.3884e-07
3.20302e-06
4.13481e-06
8.24759e-07
4.19972e-06
8.49338e-07
4.27987e-06
7.96743e-07
4.3677e-06
6.70536e-07
4.45426e-06
4.8554e-07
4.52738e-06
2.62746e-07
4.57511e-06
2.45887e-08
4.5871e-06
-2.05949e-07
4.55875e-06
-4.09434e-07
4.50179e-06
-5.59959e-07
4.43901e-06
-6.33783e-07
-5.95466e-07
4.49564e-06
5.65131e-06
8.0795e-07
5.68794e-06
8.12704e-07
5.7382e-06
7.46485e-07
5.79318e-06
6.15553e-07
5.84294e-06
4.3578e-07
5.87833e-06
2.27357e-07
5.89176e-06
1.11623e-08
5.87981e-06
-1.94002e-07
5.84319e-06
-3.72811e-07
5.79222e-06
-5.08992e-07
5.74784e-06
-5.89407e-07
-6.0462e-07
5.757e-06
7.02132e-06
7.07764e-06
7.12306e-06
7.15555e-06
7.17274e-06
7.17194e-06
7.15159e-06
7.11257e-06
7.05867e-06
6.99978e-06
6.95048e-06
6.93001e-06
3.25544e-06
-4.73798e-07
3.34143e-06
-5.30184e-07
3.41916e-06
-5.30138e-07
3.40602e-06
-5.37551e-07
3.30575e-06
-5.22817e-07
3.13777e-06
-4.4964e-07
2.94974e-06
-3.27962e-07
2.77764e-06
-1.4267e-07
2.6852e-06
5.01641e-08
2.67961e-06
2.72916e-07
2.73412e-06
5.03935e-07
7.06579e-07
2.81604e-06
4.58098e-06
-5.59143e-07
4.63053e-06
-5.79728e-07
4.67518e-06
-5.7479e-07
4.68608e-06
-5.48449e-07
4.65903e-06
-4.95769e-07
4.60273e-06
-3.93338e-07
4.51067e-06
-2.35908e-07
4.39697e-06
-2.89639e-08
4.26534e-06
1.81792e-07
4.15365e-06
3.84607e-07
4.09186e-06
5.65718e-07
7.12601e-07
4.08584e-06
5.79282e-06
-5.94968e-07
5.8096e-06
-5.96509e-07
5.81664e-06
-5.81828e-07
5.80668e-06
-5.38488e-07
5.77675e-06
-4.6584e-07
5.74015e-06
-3.56742e-07
5.71327e-06
-2.09027e-07
5.69688e-06
-1.25725e-08
5.67768e-06
2.0099e-07
5.64977e-06
4.1252e-07
5.62265e-06
5.92843e-07
7.24465e-07
5.61078e-06
6.93165e-06
6.93005e-06
6.92004e-06
6.89929e-06
6.86591e-06
6.8259e-06
6.79055e-06
6.7793e-06
6.7898e-06
6.82157e-06
6.87023e-06
6.92928e-06
2.8996e-06
8.47611e-07
2.97336e-06
9.07512e-07
3.04041e-06
8.81242e-07
3.10997e-06
7.74155e-07
3.18556e-06
5.97681e-07
3.258e-06
3.68469e-07
3.3084e-06
1.07466e-07
3.31804e-06
-1.63921e-07
3.26453e-06
-4.14244e-07
3.14743e-06
-6.07054e-07
3.01915e-06
-7.03579e-07
-5.6649e-07
4.12212e-06
8.11329e-07
4.18435e-06
8.45285e-07
4.26172e-06
8.03871e-07
4.34669e-06
6.89183e-07
4.43002e-06
5.14352e-07
4.49967e-06
2.9882e-07
4.54353e-06
6.36081e-08
4.55022e-06
-1.70614e-07
4.51812e-06
-3.82144e-07
4.45766e-06
-5.46589e-07
4.3907e-06
-6.36619e-07
-6.14487e-07
5.6208e-06
8.01307e-07
5.6518e-06
8.14293e-07
5.69816e-06
7.57509e-07
5.75079e-06
6.36555e-07
5.79918e-06
4.65961e-07
5.83328e-06
2.64715e-07
5.84568e-06
5.12147e-08
5.83205e-06
-1.56989e-07
5.79527e-06
-3.45364e-07
5.74493e-06
-4.96247e-07
5.69908e-06
-5.9077e-07
-6.17459e-07
6.98679e-06
7.03664e-06
7.07766e-06
7.108e-06
7.12477e-06
7.12495e-06
7.10593e-06
7.06952e-06
7.02158e-06
6.97251e-06
6.93097e-06
)
;

boundaryField
{
    rotor
    {
        type            calculated;
        value           nonuniform List<scalar> 
96
(
-1.12659e-29
1.24089e-24
-6.98972e-23
1.48897e-23
4.67357e-23
5.33533e-23
1.86068e-24
3.43284e-23
1.675e-23
-3.88772e-23
-1.9646e-23
-3.26732e-23
-8.45797e-23
1.41242e-22
-3.61895e-23
-2.35744e-23
8.47859e-23
4.94243e-23
1.48478e-22
2.81246e-23
4.81833e-23
3.06052e-23
-2.10927e-23
-4.96328e-24
-1.90253e-23
2.79173e-23
3.10202e-24
3.5569e-23
-3.16398e-23
6.43133e-23
4.13593e-24
-2.62633e-23
-5.62482e-23
-2.62009e-22
-7.03067e-24
-1.64196e-22
1.37932e-22
-1.64402e-22
4.03251e-23
-4.0325e-23
-4.34266e-23
-1.05471e-23
7.29988e-23
-2.48151e-23
2.68833e-23
6.82431e-24
3.1846e-23
-4.13242e-25
-8.47033e-22
-8.47033e-22
0
-8.47033e-22
8.47033e-22
0
8.47033e-22
-8.47033e-22
0
0
-8.47033e-22
0
0
4.23516e-22
0
-8.47033e-22
-8.47033e-22
0
0
0
8.47033e-22
0
-8.47033e-22
1.69407e-21
-4.23516e-22
4.23516e-22
8.47033e-22
-8.47033e-22
-8.47033e-22
0
0
0
-8.47033e-22
8.47033e-22
8.47033e-22
0
4.23516e-22
0
8.47033e-22
8.47033e-22
8.47033e-22
0
0
0
8.47033e-22
0
-8.47033e-22
0
)
;
    }
    stator
    {
        type            calculated;
        value           nonuniform 0();
    }
    AMI1
    {
        type            cyclicAMI;
        value           nonuniform List<scalar> 
48
(
-6.37189e-07
-6.2795e-07
-5.95171e-07
-5.30742e-07
-4.35499e-07
-3.10902e-07
-1.60291e-07
1.62214e-08
2.10579e-07
4.0044e-07
5.59307e-07
6.72678e-07
7.42763e-07
7.56384e-07
7.01062e-07
5.8306e-07
4.18599e-07
2.28156e-07
3.15128e-08
-1.54984e-07
-3.18916e-07
-4.50097e-07
-5.40112e-07
-5.84142e-07
-5.96614e-07
-5.94908e-07
-5.71813e-07
-5.17744e-07
-4.32453e-07
-3.1673e-07
-1.73677e-07
-1.33176e-09
1.90493e-07
3.80747e-07
5.44189e-07
6.65417e-07
7.43796e-07
7.64444e-07
7.16488e-07
6.06213e-07
4.49187e-07
2.6454e-07
7.02363e-08
-1.20579e-07
-2.97425e-07
-4.47182e-07
-5.49223e-07
-5.94979e-07
)
;
    }
    AMI2
    {
        type            cyclicAMI;
        value           nonuniform 0();
    }
    front
    {
        type            empty;
        value           nonuniform 0();
    }
    back
    {
        type            empty;
        value           nonuniform 0();
    }
    procBoundary2to3
    {
        type            processor;
        value           nonuniform List<scalar> 8(3.15533e-06 4.43869e-06 5.70205e-06 6.90849e-06 -3.19772e-06 -4.48778e-06 -5.74954e-06 -6.92539e-06);
    }
}


// ************************************************************************* //
