/*--------------------------------*- C++ -*----------------------------------*\
| =========                 |                                                 |
| \\      /  F ield         | OpenFOAM: The Open Source CFD Toolbox           |
|  \\    /   O peration     | Version:  v1806                                 |
|   \\  /    A nd           | Web:      www.OpenFOAM.com                      |
|    \\/     M anipulation  |                                                 |
\*---------------------------------------------------------------------------*/
FoamFile
{
    version     2.0;
    format      ascii;
    class       volVectorField;
    location    "5";
    object      U;
}
// * * * * * * * * * * * * * * * * * * * * * * * * * * * * * * * * * * * * * //

dimensions      [0 1 -1 0 0 0 0];


internalField   nonuniform List<vector> 
768
(
(-0.0116007 -0.139757 1.12217e-19)
(-0.0165215 -0.129892 4.88462e-20)
(-0.0281195 -0.128199 -1.8432e-19)
(-0.034457 -0.119358 2.69456e-19)
(-0.0408776 -0.113834 1.75961e-19)
(-0.0472544 -0.108134 -1.80472e-19)
(-0.0532508 -0.101862 -1.79092e-19)
(-0.0591495 -0.0952964 1.73123e-19)
(-0.0654486 -0.0887321 1.06379e-18)
(-0.0721304 -0.0833312 3.6696e-21)
(-0.0793416 -0.0798453 -1.26861e-18)
(-0.0877568 -0.0774125 7.35676e-19)
(-0.00368455 -0.154843 5.80168e-20)
(-0.00552824 -0.15219 -3.74303e-20)
(-0.0120241 -0.149957 0)
(-0.0193152 -0.147271 -1.05082e-20)
(-0.0283108 -0.143839 -1.65427e-19)
(-0.0374922 -0.139877 -4.8462e-19)
(-0.0464277 -0.135952 3.26045e-19)
(-0.0562108 -0.132029 1.47732e-19)
(-0.0688903 -0.126816 3.20518e-19)
(-0.0848882 -0.11963 -1.32614e-18)
(-0.102982 -0.113652 9.6572e-19)
(-0.121831 -0.109783 6.21935e-19)
(-0.00661398 -0.16179 3.34891e-20)
(-0.0121814 -0.158978 0)
(-0.0202089 -0.156706 0)
(-0.0292947 -0.153519 1.95621e-21)
(-0.0398016 -0.149788 -2.68744e-19)
(-0.0516098 -0.145945 -6.86561e-19)
(-0.0644061 -0.142596 8.37647e-19)
(-0.0786319 -0.140168 -2.90653e-19)
(-0.095872 -0.137373 0)
(-0.11627 -0.132621 -7.97324e-19)
(-0.13821 -0.127298 7.55755e-19)
(-0.158926 -0.122437 -4.86104e-19)
(4.98823e-05 -0.179968 6.98693e-20)
(-0.00672679 -0.177547 2.86118e-21)
(-0.016735 -0.175176 -1.14376e-19)
(-0.0275904 -0.17221 1.19511e-19)
(-0.0397825 -0.168363 2.22541e-19)
(-0.0537981 -0.163624 0)
(-0.0703839 -0.158205 2.48565e-19)
(-0.0901381 -0.152575 -4.77182e-19)
(-0.113342 -0.146868 0)
(-0.138396 -0.14052 6.64421e-19)
(-0.162336 -0.134119 -4.13286e-19)
(-0.182495 -0.128215 2.0026e-20)
(0.000160828 -0.195759 -4.83249e-20)
(-0.00815239 -0.193315 4.548e-21)
(-0.0199328 -0.190812 0)
(-0.0325618 -0.18767 0)
(-0.0468292 -0.18375 -2.06601e-19)
(-0.0631001 -0.178928 -2.1133e-19)
(-0.0817092 -0.172593 2.12905e-19)
(-0.1034 -0.164342 3.99536e-19)
(-0.128421 -0.155073 0)
(-0.154276 -0.145794 0)
(-0.17716 -0.137333 0)
(-0.194629 -0.130112 3.42788e-19)
(0.00188857 -0.212277 2.14113e-20)
(-0.00787115 -0.210213 1.24941e-19)
(-0.0213847 -0.208469 -8.16545e-20)
(-0.0356688 -0.205596 0)
(-0.0515521 -0.201219 0)
(-0.0696161 -0.19528 -1.79335e-19)
(-0.0903632 -0.187237 0)
(-0.113848 -0.176209 0)
(-0.139457 -0.162999 -3.09556e-19)
(-0.164454 -0.149888 5.88094e-19)
(-0.185 -0.138604 -5.88334e-21)
(-0.199141 -0.129763 -5.36601e-19)
(0.00189685 -0.228648 1.54707e-20)
(-0.00989192 -0.227505 -6.78536e-20)
(-0.0247973 -0.22688 6.78394e-20)
(-0.0403489 -0.224515 0)
(-0.0573802 -0.219924 -1.3899e-19)
(-0.0762391 -0.212837 -1.39725e-19)
(-0.097445 -0.202845 2.79121e-19)
(-0.121106 -0.189148 2.6374e-19)
(-0.146046 -0.172159 -2.71853e-19)
(-0.16936 -0.154745 4.76332e-19)
(-0.187437 -0.139917 -6.65909e-19)
(-0.198766 -0.128956 4.46136e-19)
(0.000611544 -0.244806 9.97601e-21)
(-0.0136602 -0.245487 5.45019e-20)
(-0.0294398 -0.246256 4.46143e-20)
(-0.0456289 -0.244483 0)
(-0.0630314 -0.239713 9.94089e-20)
(-0.0819233 -0.231459 -4.21994e-19)
(-0.102659 -0.219496 6.42696e-19)
(-0.125333 -0.203424 -4.20628e-19)
(-0.148729 -0.183351 -1.69689e-20)
(-0.170014 -0.16194 -1.5994e-20)
(-0.185958 -0.143095 2.11801e-19)
(-0.195407 -0.129133 0)
(-0.00262008 -0.26067 -2.09674e-20)
(-0.0189006 -0.264296 -1.00052e-19)
(-0.0350557 -0.265836 3.18963e-20)
(-0.0511222 -0.264045 -8.25864e-20)
(-0.0678802 -0.258988 -9.25425e-20)
(-0.0861051 -0.24985 4.34724e-20)
(-0.105823 -0.236301 -1.87276e-19)
(-0.126902 -0.218376 -1.56897e-19)
(-0.148351 -0.196261 1.49919e-19)
(-0.167691 -0.171949 -1.55395e-19)
(-0.182104 -0.149381 1.46569e-19)
(-0.190634 -0.131799 2.25735e-19)
(-0.00790202 -0.275606 3.32786e-20)
(-0.0248019 -0.282997 1.97825e-20)
(-0.0402877 -0.283666 0)
(-0.0552286 -0.280548 0)
(-0.0705157 -0.27419 9.34698e-20)
(-0.0872227 -0.263942 1.1399e-19)
(-0.106132 -0.249738 2.23446e-19)
(-0.126174 -0.231301 -2.17412e-20)
(-0.146108 -0.208788 1.67996e-19)
(-0.164029 -0.183498 0)
(-0.177692 -0.158691 0)
(-0.186306 -0.137929 -2.11571e-19)
(-0.0200476 -0.285958 8.78913e-21)
(-0.031657 -0.29409 -1.95653e-20)
(-0.0420081 -0.291245 4.86149e-20)
(-0.0545933 -0.284598 0)
(-0.0678226 -0.276457 -8.81291e-20)
(-0.082782 -0.266261 -8.44818e-20)
(-0.100729 -0.252892 -1.72171e-20)
(-0.121162 -0.236045 -1.92481e-20)
(-0.141504 -0.215618 -1.58624e-19)
(-0.159593 -0.192171 0)
(-0.17381 -0.16779 0)
(-0.183629 -0.14561 0)
(-0.00548779 -0.275282 -8.09655e-21)
(-0.0201664 -0.268877 -9.68985e-21)
(-0.0339151 -0.261441 -1.61677e-20)
(-0.0440505 -0.251774 -2.3675e-20)
(-0.0552923 -0.245439 3.45768e-20)
(-0.0702 -0.240971 -1.41209e-20)
(-0.0884077 -0.234209 -4.1849e-20)
(-0.109144 -0.223005 -2.37454e-20)
(-0.130402 -0.207986 0)
(-0.149887 -0.189767 2.95353e-20)
(-0.165937 -0.169322 -2.1632e-20)
(-0.177846 -0.148778 3.27286e-20)
(-0.0981199 -0.0742544 -1.75245e-19)
(-0.110161 -0.0691655 -7.75753e-19)
(-0.122203 -0.0628892 6.01677e-19)
(-0.13205 -0.05677 1.76486e-19)
(-0.138259 -0.0512829 0)
(-0.140513 -0.0462237 -7.66719e-19)
(-0.1396 -0.0405061 9.60763e-19)
(-0.13668 -0.0326436 0)
(-0.13279 -0.0217412 0)
(-0.12988 -0.00766602 0)
(-0.129101 0.00668437 -5.03419e-20)
(-0.128777 0.0127233 1.22744e-20)
(-0.139766 -0.106911 -2.86574e-19)
(-0.155153 -0.104576 -5.70546e-19)
(-0.166858 -0.102743 8.48435e-19)
(-0.174475 -0.100931 -2.88713e-19)
(-0.178088 -0.0980488 2.66874e-19)
(-0.177951 -0.093024 0)
(-0.174666 -0.0860627 -2.85268e-19)
(-0.169563 -0.0764311 -3.66141e-21)
(-0.162742 -0.0620889 3.05266e-19)
(-0.15503 -0.0426518 -1.64752e-19)
(-0.148421 -0.0213107 8.74101e-20)
(-0.144805 -0.0028097 0)
(-0.176405 -0.11795 0)
(-0.189908 -0.113727 -2.14398e-19)
(-0.19942 -0.109786 0)
(-0.205258 -0.106365 4.47297e-19)
(-0.207962 -0.103936 -2.35722e-19)
(-0.208018 -0.102609 3.77647e-21)
(-0.205317 -0.10037 -6.67957e-19)
(-0.199983 -0.0948597 1.10646e-19)
(-0.192218 -0.0826237 0)
(-0.182097 -0.0599023 1.27141e-19)
(-0.170112 -0.027178 3.71739e-21)
(-0.159695 0.00220941 -7.30777e-23)
(-0.197767 -0.123009 -7.34899e-19)
(-0.208296 -0.118745 7.39246e-19)
(-0.214697 -0.115695 -3.69925e-19)
(-0.217914 -0.113987 -1.76695e-19)
(-0.219107 -0.113339 0)
(-0.219278 -0.113085 3.85102e-19)
(-0.219032 -0.11316 -5.46949e-19)
(-0.217805 -0.112483 2.80429e-19)
(-0.214473 -0.107226 -2.85273e-19)
(-0.207727 -0.090238 -2.08623e-19)
(-0.19554 -0.0541995 1.19926e-19)
(-0.176822 -0.00582131 -3.31368e-20)
(-0.206324 -0.124156 3.34738e-19)
(-0.213067 -0.119391 -4.59333e-19)
(-0.216182 -0.115683 0)
(-0.217272 -0.11285 1.7194e-19)
(-0.217845 -0.110878 0)
(-0.218996 -0.110127 0)
(-0.220978 -0.110724 1.87985e-20)
(-0.22363 -0.112731 -3.1943e-19)
(-0.225722 -0.114433 2.47514e-19)
(-0.225178 -0.108323 8.94539e-20)
(-0.219249 -0.0793326 -4.49021e-20)
(-0.201491 -0.0186816 -2.83958e-20)
(-0.207288 -0.123139 2.83621e-19)
(-0.211058 -0.118236 -4.95293e-19)
(-0.212455 -0.114558 5.25033e-19)
(-0.213286 -0.111694 -2.81022e-19)
(-0.214643 -0.109366 5.80049e-19)
(-0.21704 -0.107455 -2.89029e-19)
(-0.220632 -0.106364 1.52693e-19)
(-0.225527 -0.107123 1.78843e-20)
(-0.230951 -0.110665 0)
(-0.235064 -0.11338 7.28112e-20)
(-0.237097 -0.0983716 5.29924e-21)
(-0.230193 -0.0382723 -4.38255e-20)
(-0.204475 -0.121491 -2.04226e-19)
(-0.206889 -0.116462 6.94245e-19)
(-0.208351 -0.11277 -6.93557e-19)
(-0.21037 -0.109658 0)
(-0.213434 -0.10686 2.2888e-19)
(-0.217615 -0.104363 2.32132e-19)
(-0.223019 -0.102309 -2.2883e-19)
(-0.229353 -0.101522 2.43079e-19)
(-0.235934 -0.103548 -1.11585e-19)
(-0.241387 -0.109212 0)
(-0.247911 -0.107707 0)
(-0.2554 -0.0591235 -1.70266e-20)
(-0.199881 -0.120005 -1.56222e-19)
(-0.202062 -0.114233 0)
(-0.204261 -0.110106 1.98581e-19)
(-0.20757 -0.106528 -1.64383e-20)
(-0.212316 -0.103177 -1.0595e-21)
(-0.218705 -0.0999628 -2.39239e-19)
(-0.226353 -0.0972715 2.25203e-19)
(-0.234229 -0.0959595 -1.10785e-19)
(-0.241423 -0.0970939 1.09299e-19)
(-0.246888 -0.102169 -4.02337e-20)
(-0.253673 -0.10866 -4.90637e-20)
(-0.273858 -0.0768476 1.55696e-20)
(-0.194859 -0.119954 1.43011e-19)
(-0.197497 -0.112498 2.53272e-19)
(-0.200734 -0.107386 -1.3661e-19)
(-0.205553 -0.103077 -2.6404e-20)
(-0.212271 -0.0988322 2.68346e-20)
(-0.220658 -0.0946006 -4.80591e-19)
(-0.229512 -0.0911149 2.46691e-19)
(-0.237682 -0.0894146 -2.34097e-19)
(-0.24473 -0.0905816 -8.4274e-20)
(-0.250549 -0.0949059 1.28311e-19)
(-0.256535 -0.103614 3.365e-21)
(-0.284624 -0.0891539 2.20292e-23)
(-0.191285 -0.122879 0)
(-0.195154 -0.112839 -1.10236e-19)
(-0.199945 -0.105846 -1.84116e-19)
(-0.206481 -0.100043 -1.2031e-19)
(-0.214547 -0.0944161 1.13978e-19)
(-0.223042 -0.089022 1.29812e-19)
(-0.230625 -0.0847423 1.03645e-20)
(-0.236994 -0.0825307 2.54996e-19)
(-0.242861 -0.0830222 0)
(-0.24924 -0.086477 0)
(-0.257775 -0.0931213 9.11042e-21)
(-0.286767 -0.0897447 -1.34393e-20)
(-0.190228 -0.127901 0)
(-0.195676 -0.114869 1.19584e-19)
(-0.201549 -0.105168 3.99927e-20)
(-0.208205 -0.0971766 -1.41637e-19)
(-0.214904 -0.0899843 1.42813e-19)
(-0.220489 -0.0836482 -9.73632e-20)
(-0.224451 -0.0787642 1.11736e-19)
(-0.22764 -0.0756932 -2.07833e-20)
(-0.232095 -0.0744711 0)
(-0.239589 -0.0749572 -3.63625e-20)
(-0.254583 -0.0773524 1.85492e-20)
(-0.279142 -0.0687866 9.33535e-21)
(-0.186253 -0.130416 0)
(-0.192526 -0.115334 -6.28333e-20)
(-0.197706 -0.103252 1.26282e-19)
(-0.201971 -0.0933043 1.75891e-20)
(-0.204894 -0.0848815 2.95807e-20)
(-0.20621 -0.0779028 4.40286e-20)
(-0.206497 -0.0724932 4.82605e-20)
(-0.207213 -0.0685142 -1.69101e-19)
(-0.21038 -0.0655393 0)
(-0.218303 -0.0621796 9.29542e-21)
(-0.236636 -0.05618 1.87074e-20)
(-0.255727 -0.0287338 -1.05499e-20)
(-0.132016 0.00944865 -1.07047e-20)
(-0.128042 0.0178833 0)
(-0.123044 0.025839 0)
(-0.117612 0.0333543 9.09591e-20)
(-0.112027 0.0403126 0)
(-0.106285 0.0467096 7.21896e-19)
(-0.100338 0.0526878 -1.59342e-18)
(-0.0941838 0.0587 7.06767e-19)
(-0.0879743 0.0650831 5.23307e-19)
(-0.0831597 0.0717221 -3.68845e-19)
(-0.0801502 0.0789061 1.44393e-18)
(-0.0779052 0.0874674 -7.33483e-19)
(-0.151146 -0.00338252 1.21319e-21)
(-0.150919 0.00197076 7.74986e-20)
(-0.14881 0.0111924 0)
(-0.14594 0.0207511 1.63738e-19)
(-0.142472 0.0299269 -4.72499e-19)
(-0.138804 0.0385495 1.64764e-19)
(-0.135213 0.0471674 1.65283e-19)
(-0.131414 0.057127 3.15126e-19)
(-0.125976 0.0702217 -9.97923e-19)
(-0.119049 0.0864444 9.77505e-19)
(-0.113791 0.104759 -3.86702e-22)
(-0.110332 0.123853 -9.10257e-19)
(-0.162988 0.00420915 1.08657e-21)
(-0.161025 0.0119295 -6.97671e-20)
(-0.158253 0.0213282 0)
(-0.154693 0.0311078 8.33287e-21)
(-0.150796 0.0416867 1.39522e-19)
(-0.147006 0.053304 -5.50662e-19)
(-0.143848 0.0658061 -2.29515e-21)
(-0.141532 0.0801832 2.7403e-19)
(-0.138407 0.0978335 -5.58709e-19)
(-0.133518 0.118738 1.41094e-21)
(-0.128401 0.140935 1.00368e-18)
(-0.123675 0.161592 -7.04827e-19)
(-0.180842 -0.0023457 4.24425e-20)
(-0.178791 0.00489167 6.04173e-20)
(-0.176409 0.0160409 -1.15081e-19)
(-0.173207 0.0278967 3.52614e-19)
(-0.168967 0.0407321 -2.32359e-19)
(-0.164054 0.0553254 -4.72702e-19)
(-0.158836 0.0724517 2.48446e-19)
(-0.153568 0.0926804 -4.73738e-19)
(-0.147979 0.116265 -2.14985e-19)
(-0.141708 0.141399 8.58404e-19)
(-0.135414 0.165026 -2.15469e-19)
(-0.129511 0.184591 -1.98693e-20)
(-0.19614 -0.000221583 -4.85102e-20)
(-0.194236 0.008332 5.10916e-20)
(-0.191786 0.0204656 -9.32699e-20)
(-0.188593 0.0336169 1.97798e-19)
(-0.184601 0.0483405 -1.98671e-19)
(-0.179636 0.0648643 -5.97636e-19)
(-0.173025 0.083761 6.1723e-19)
(-0.164767 0.105912 3.92492e-19)
(-0.155699 0.131224 -5.34073e-19)
(-0.146638 0.156804 0)
(-0.138345 0.178927 -1.76327e-19)
(-0.131152 0.195474 -3.39195e-19)
(-0.212518 -0.00249404 2.14677e-20)
(-0.210704 0.00758248 0)
(-0.209097 0.0215409 9.33021e-21)
(-0.206193 0.0363252 0)
(-0.201724 0.0526726 1.58175e-19)
(-0.195629 0.0712188 1.99081e-20)
(-0.187247 0.0923303 0)
(-0.175933 0.116082 -3.05094e-19)
(-0.162829 0.141702 3.29104e-19)
(-0.15006 0.166099 2.86328e-19)
(-0.139123 0.185621 -5.70856e-21)
(-0.13047 0.198744 -2.68251e-19)
(-0.228704 -0.00187944 -3.27356e-23)
(-0.22774 0.0100485 0)
(-0.227172 0.0251941 -5.40056e-20)
(-0.224763 0.0410662 -1.28034e-19)
(-0.220021 0.0583682 -2.88296e-19)
(-0.212723 0.0775228 2.91369e-19)
(-0.202392 0.0990134 -2.54723e-19)
(-0.188258 0.122811 2.31754e-20)
(-0.171184 0.147546 2.51844e-19)
(-0.154148 0.170109 0)
(-0.139873 0.187104 -2.07102e-19)
(-0.12933 0.197504 -2.20474e-19)
(-0.244818 -0.000578639 -1.47542e-20)
(-0.245522 0.0137859 2.7171e-20)
(-0.246269 0.0297926 1.18665e-19)
(-0.244403 0.0461988 1.19216e-19)
(-0.239429 0.0637939 -1.10001e-19)
(-0.230913 0.0828222 3.32923e-19)
(-0.218619 0.103694 4.35488e-19)
(-0.202088 0.126384 -2.10238e-19)
(-0.181767 0.149466 -1.66363e-20)
(-0.160644 0.16999 3.62691e-19)
(-0.142452 0.18495 1.50385e-20)
(-0.129115 0.193655 0)
(-0.260654 0.00262429 -3.0569e-20)
(-0.26415 0.0189771 -4.2155e-20)
(-0.265717 0.0353656 4.17537e-20)
(-0.263883 0.051584 0)
(-0.258601 0.0684377 -8.21217e-20)
(-0.249117 0.0866675 6.23503e-20)
(-0.23515 0.106321 1.43081e-19)
(-0.216788 0.127283 -1.58813e-19)
(-0.194341 0.148393 -1.64929e-19)
(-0.170138 0.167071 0)
(-0.148146 0.180685 0)
(-0.131267 0.188664 2.23817e-19)
(-0.275622 0.00775493 4.426e-21)
(-0.282804 0.0248457 -2.59054e-20)
(-0.283633 0.0406389 0)
(-0.280577 0.0556881 -9.67811e-20)
(-0.274104 0.0709136 5.6497e-20)
(-0.263548 0.0875509 -2.8334e-19)
(-0.248834 0.106287 2.02223e-20)
(-0.229837 0.126042 -1.97506e-19)
(-0.206889 0.145575 0)
(-0.181488 0.162938 1.58781e-19)
(-0.157024 0.175995 0)
(-0.136859 0.184218 -3.02072e-19)
(-0.2862 0.0197455 1.27589e-20)
(-0.29415 0.0320037 8.89105e-21)
(-0.291492 0.0426681 -2.95468e-20)
(-0.284945 0.0551575 9.2812e-20)
(-0.276778 0.0681891 3.38604e-20)
(-0.266403 0.0829348 3.21258e-21)
(-0.252704 0.100683 9.9203e-20)
(-0.235341 0.120822 1.88391e-20)
(-0.214331 0.140729 0)
(-0.190492 0.158287 -6.11358e-20)
(-0.166108 0.171993 9.31669e-20)
(-0.144249 0.1815 0)
(-0.276381 0.00557189 6.32785e-24)
(-0.270003 0.0207327 1.96543e-20)
(-0.262397 0.0345203 3.55021e-20)
(-0.252476 0.0444679 0)
(-0.245904 0.0555215 0)
(-0.241311 0.0702293 3.36761e-20)
(-0.234516 0.0882042 6.59439e-20)
(-0.223169 0.108734 0)
(-0.207767 0.129752 0)
(-0.189064 0.148853 -8.35935e-20)
(-0.168296 0.164486 -8.74984e-20)
(-0.147703 0.176113 0)
(-0.074603 0.0982028 -1.88116e-19)
(-0.0692527 0.110716 1.78516e-19)
(-0.0629121 0.123126 -3.72739e-19)
(-0.0569019 0.133103 3.6546e-19)
(-0.051586 0.139218 3.70361e-19)
(-0.0466963 0.141247 0)
(-0.0409729 0.140057 0)
(-0.033005 0.136814 9.73348e-20)
(-0.0219267 0.132605 0)
(-0.00764744 0.129519 0)
(0.00684963 0.128805 -5.01427e-20)
(0.0129174 0.128646 1.14828e-20)
(-0.107662 0.141954 5.84573e-19)
(-0.105473 0.157322 -8.57823e-19)
(-0.10378 0.168832 -2.60676e-19)
(-0.102068 0.176145 2.5928e-19)
(-0.0992045 0.179418 1.1993e-19)
(-0.0941446 0.178947 -5.55372e-19)
(-0.0871798 0.175393 5.59397e-19)
(-0.0774021 0.170065 -1.40035e-19)
(-0.0627209 0.163046 -1.48093e-19)
(-0.0427648 0.155099 1.64089e-19)
(-0.0209131 0.148285 -1.71388e-19)
(-0.00231217 0.144583 -4.24982e-20)
(-0.11922 0.178834 2.20517e-19)
(-0.114972 0.191991 4.4648e-19)
(-0.111005 0.201111 -4.3992e-19)
(-0.107622 0.206581 8.85886e-19)
(-0.105314 0.208953 -2.33594e-19)
(-0.104133 0.208692 2.18067e-19)
(-0.101948 0.205844 -4.46946e-19)
(-0.0964452 0.20048 3.50739e-19)
(-0.0840111 0.192685 -2.29659e-19)
(-0.0607855 0.182454 1.26386e-19)
(-0.0272914 0.17023 7.02812e-20)
(0.00257374 0.159471 3.72134e-20)
(-0.124227 0.199202 -1.73601e-19)
(-0.119864 0.20909 1.72916e-19)
(-0.116736 0.214941 5.39391e-19)
(-0.114965 0.217771 -9.20307e-19)
(-0.114247 0.218784 3.81497e-19)
(-0.114001 0.218979 -7.62763e-19)
(-0.114202 0.218862 3.72835e-19)
(-0.113654 0.217814 1.79158e-19)
(-0.108475 0.214662 1.93618e-19)
(-0.0913185 0.207998 -1.01811e-19)
(-0.0546674 0.195743 -1.75813e-19)
(-0.00545189 0.176674 -7.96578e-20)
(-0.125116 0.206341 3.32272e-19)
(-0.120225 0.212455 -4.57213e-19)
(-0.116379 0.2152 -1.67662e-19)
(-0.11342 0.216179 1.71743e-19)
(-0.111377 0.216831 0)
(-0.110648 0.218161 -1.59573e-19)
(-0.111261 0.220396 3.24886e-19)
(-0.113392 0.223356 -1.71332e-19)
(-0.115302 0.225717 -8.58485e-20)
(-0.109305 0.225318 8.24129e-20)
(-0.0799989 0.219432 1.398e-19)
(-0.0185008 0.201552 -2.37051e-20)
(-0.123858 0.206163 0)
(-0.118855 0.209571 7.98051e-19)
(-0.115033 0.210945 -1.79822e-20)
(-0.112036 0.211969 0)
(-0.109612 0.213605 0)
(-0.107671 0.216295 -2.92724e-19)
(-0.106598 0.220193 2.82816e-19)
(-0.107453 0.225389 -1.32274e-19)
(-0.111243 0.231058 0)
(-0.114228 0.235265 -7.49038e-20)
(-0.0991564 0.237291 3.89916e-20)
(-0.0383225 0.2303 -2.03328e-20)
(-0.122024 0.202717 1.04776e-21)
(-0.116931 0.205075 -1.81759e-20)
(-0.113057 0.206765 1.96624e-19)
(-0.109761 0.2091 -6.97116e-19)
(-0.10684 0.212492 2.44263e-19)
(-0.1043 0.217026 -2.31298e-19)
(-0.102251 0.22277 -1.24141e-19)
(-0.10157 0.229383 2.49103e-19)
(-0.103903 0.236171 0)
(-0.109978 0.241696 -6.10089e-20)
(-0.108606 0.248219 5.98656e-20)
(-0.0593876 0.255543 -3.54103e-23)
(-0.120323 0.197868 -1.70985e-19)
(-0.114568 0.200207 -1.42112e-21)
(-0.110259 0.202748 -1.99508e-19)
(-0.106461 0.206409 5.6667e-19)
(-0.102931 0.211517 0)
(-0.0996135 0.218275 1.47564e-20)
(-0.096902 0.226211 2.05213e-19)
(-0.0957315 0.23426 -9.58339e-21)
(-0.0972008 0.241582 1.91762e-19)
(-0.102774 0.247086 5.10747e-20)
(-0.10964 0.254046 -2.76558e-21)
(-0.0774938 0.274163 -2.8164e-23)
(-0.119916 0.192787 0)
(-0.112619 0.195679 1.41774e-20)
(-0.107414 0.199306 -2.6008e-19)
(-0.102901 0.204513 -1.56978e-19)
(-0.098444 0.211605 1.51857e-19)
(-0.094061 0.220293 -1.56667e-19)
(-0.0905608 0.229341 0)
(-0.0890056 0.237586 6.10208e-20)
(-0.0904795 0.244673 -1.66039e-19)
(-0.0952461 0.25046 -4.19594e-20)
(-0.104442 0.256771 -4.15565e-20)
(-0.0902642 0.285024 -2.20288e-23)
(-0.122337 0.189178 -7.08021e-20)
(-0.112566 0.193323 1.09442e-19)
(-0.105583 0.19851 2.18083e-19)
(-0.0996309 0.205442 -2.12374e-20)
(-0.0938161 0.213845 2.1454e-19)
(-0.088303 0.222576 0)
(-0.0840438 0.230256 1.77293e-19)
(-0.0820171 0.23665 -2.02955e-19)
(-0.0827835 0.242588 6.98189e-20)
(-0.0865965 0.248958 2.26099e-20)
(-0.0935969 0.257936 3.93573e-20)
(-0.0909415 0.287002 0)
(-0.126941 0.18809 2.61603e-19)
(-0.114184 0.193781 7.17105e-20)
(-0.104566 0.200022 -2.02337e-19)
(-0.0965132 0.207058 -2.59852e-19)
(-0.089203 0.214077 -1.16363e-20)
(-0.0827917 0.219897 7.98247e-20)
(-0.0779265 0.224015 -1.86911e-19)
(-0.0750437 0.227296 0)
(-0.0741023 0.231849 0)
(-0.0749356 0.239368 -3.40622e-20)
(-0.0777591 0.254902 4.51286e-20)
(-0.0697361 0.278954 6.51488e-21)
(-0.12947 0.184478 -1.01951e-19)
(-0.114531 0.190939 0)
(-0.102507 0.196449 1.74125e-19)
(-0.0925228 0.201091 -5.39591e-20)
(-0.0840184 0.204356 1.08384e-19)
(-0.0769861 0.205943 -7.14849e-21)
(-0.0716121 0.206437 9.01492e-21)
(-0.0678042 0.207316 0)
(-0.065107 0.210616 -5.61481e-20)
(-0.0621098 0.218563 -2.16454e-20)
(-0.0566522 0.23717 -6.17674e-21)
(-0.0300912 0.255658 -9.29238e-21)
(0.011422 -0.195079 -1.96458e-21)
(0.00152707 -0.190209 -6.37532e-22)
(-0.0103285 -0.186521 -8.90608e-21)
(-0.0219925 -0.184043 1.98345e-20)
(-0.0348317 -0.183897 -2.08743e-20)
(-0.0506386 -0.185959 1.82169e-21)
(-0.0696024 -0.18814 2.58551e-20)
(-0.0905547 -0.187795 8.46346e-22)
(-0.112169 -0.182233 -8.61851e-22)
(-0.132092 -0.170986 6.57466e-21)
(-0.148755 -0.155902 -4.35053e-20)
(-0.161611 -0.139214 1.63999e-20)
(0.0115459 -0.158089 0)
(0.000765263 -0.154368 4.54051e-21)
(-0.00983478 -0.151198 2.85538e-21)
(-0.0202757 -0.148925 0)
(-0.031389 -0.147154 -2.62692e-21)
(-0.0442596 -0.145285 -1.432e-21)
(-0.059023 -0.143027 -7.71756e-21)
(-0.0745184 -0.140542 1.71463e-20)
(-0.0904318 -0.137444 -1.7867e-20)
(-0.106508 -0.132574 -5.43436e-21)
(-0.1214 -0.124698 -5.58191e-21)
(-0.133645 -0.114005 -1.30136e-20)
(0.0131249 -0.123737 -9.31065e-22)
(0.00510694 -0.122626 3.64133e-21)
(-0.00295805 -0.121602 -7.92558e-22)
(-0.0117747 -0.120926 -3.06993e-21)
(-0.0216459 -0.12019 1.49587e-20)
(-0.0327515 -0.118747 1.82129e-20)
(-0.0449218 -0.115798 -2.32731e-20)
(-0.0578314 -0.110667 0)
(-0.0707313 -0.103745 0)
(-0.0828629 -0.096125 2.67382e-20)
(-0.093513 -0.0882966 -1.45351e-20)
(-0.102097 -0.0801566 -4.16204e-21)
(0.013589 -0.092818 1.17488e-21)
(0.00722864 -0.0932414 -2.94744e-22)
(0.000402914 -0.0933153 2.01804e-22)
(-0.00731442 -0.093294 8.01582e-21)
(-0.0160195 -0.092949 -1.16141e-20)
(-0.0256974 -0.0919371 -6.49706e-21)
(-0.036074 -0.0898172 4.69317e-20)
(-0.046515 -0.0859292 -2.52802e-20)
(-0.0563931 -0.0799397 -1.29643e-20)
(-0.0650985 -0.0722403 9.65522e-21)
(-0.0720104 -0.06355 -2.62631e-20)
(-0.0767389 -0.0546504 -1.14451e-20)
(-0.170786 -0.122836 -2.97154e-20)
(-0.176865 -0.108091 4.35368e-20)
(-0.180467 -0.0954983 0)
(-0.181974 -0.0849913 0)
(-0.181703 -0.0763681 -9.90347e-20)
(-0.180286 -0.0694994 -1.05673e-19)
(-0.178814 -0.0642087 -3.46031e-20)
(-0.178583 -0.0600539 5.38957e-20)
(-0.180729 -0.0562778 0)
(-0.185941 -0.0509738 2.15479e-20)
(-0.193355 -0.0420953 2.70234e-21)
(-0.198292 -0.0184177 -9.61378e-22)
(-0.142477 -0.101872 3.7664e-20)
(-0.147879 -0.08989 -2.14239e-20)
(-0.15029 -0.0791767 -1.79968e-20)
(-0.15038 -0.0702396 1.96787e-20)
(-0.148982 -0.0631729 2.93826e-20)
(-0.14708 -0.0578177 -3.55176e-20)
(-0.14568 -0.0537758 1.3458e-19)
(-0.145616 -0.0504363 -1.77964e-20)
(-0.147429 -0.0469666 -2.85335e-20)
(-0.151115 -0.0420802 0)
(-0.155889 -0.0342983 -7.92759e-21)
(-0.159105 -0.0223334 -1.59219e-21)
(-0.108304 -0.0717216 -1.25773e-20)
(-0.11203 -0.063531 -1.15193e-20)
(-0.113455 -0.0563094 -5.61873e-21)
(-0.113142 -0.0505288 -2.71016e-20)
(-0.111919 -0.046302 4.49807e-20)
(-0.110667 -0.0434139 0)
(-0.11014 -0.04141 1.37309e-20)
(-0.110845 -0.0397003 -1.36138e-20)
(-0.112981 -0.0375762 4.77961e-20)
(-0.11635 -0.0341761 -3.91786e-21)
(-0.120215 -0.0287739 1.1138e-20)
(-0.123044 -0.0207587 0)
(-0.0793919 -0.0463394 2.6115e-21)
(-0.0803449 -0.0393877 -1.95716e-21)
(-0.0800231 -0.0342306 4.85159e-21)
(-0.0789402 -0.0309109 -5.962e-20)
(-0.077722 -0.0291913 -2.37978e-20)
(-0.0769725 -0.0286373 0)
(-0.0771588 -0.0287093 0)
(-0.0785375 -0.0288204 3.97837e-20)
(-0.0810878 -0.0283788 -2.00901e-20)
(-0.0845048 -0.0267965 -1.38674e-20)
(-0.0881548 -0.0235955 9.59028e-22)
(-0.0911029 -0.0185724 3.35061e-22)
(-0.194982 -0.0104714 1.51109e-21)
(-0.190358 -0.000910322 -8.65985e-21)
(-0.186988 0.0107638 1.63203e-21)
(-0.1846 0.0222893 0)
(-0.184419 0.0349873 -3.83074e-21)
(-0.186378 0.0506451 -1.48432e-20)
(-0.188429 0.0694333 1.36494e-21)
(-0.188036 0.0901558 -1.62542e-21)
(-0.182536 0.111596 -8.10952e-21)
(-0.171268 0.131405 0)
(-0.156008 0.147945 0)
(-0.139112 0.160718 0)
(-0.15782 -0.0105804 -2.12276e-21)
(-0.154285 -8.90699e-05 0)
(-0.15138 0.0103163 -8.54368e-21)
(-0.149293 0.0205661 0)
(-0.147652 0.0314771 2.22319e-21)
(-0.145852 0.0441552 1.54609e-20)
(-0.143582 0.058755 -5.0746e-22)
(-0.141016 0.0741687 -8.73673e-21)
(-0.137871 0.0899845 7.8643e-21)
(-0.133084 0.106018 7.98863e-21)
(-0.125335 0.120984 0)
(-0.114693 0.133414 0)
(-0.123457 -0.0121012 6.99019e-22)
(-0.122449 -0.00432622 0)
(-0.121594 0.00351211 3.45183e-21)
(-0.121064 0.0121092 3.19687e-21)
(-0.120445 0.0217708 9.88354e-21)
(-0.119141 0.0327142 -2.76887e-20)
(-0.116334 0.0447766 2.25073e-20)
(-0.111351 0.0575707 1.2248e-20)
(-0.104515 0.0704279 -1.21586e-20)
(-0.096924 0.0826117 0)
(-0.0891419 0.0934298 0)
(-0.0810717 0.102307 0)
(-0.092615 -0.0125516 4.64634e-22)
(-0.0930389 -0.00641438 0)
(-0.0931776 0.000159778 0)
(-0.0932465 0.00762499 -2.95695e-21)
(-0.0930129 0.0160942 -7.1383e-21)
(-0.0921202 0.0255647 1.22393e-20)
(-0.0901285 0.0358369 -9.73135e-21)
(-0.0864068 0.0462369 1.19633e-20)
(-0.0805612 0.056152 -2.54378e-20)
(-0.0729782 0.0649752 0)
(-0.0643644 0.0721071 0)
(-0.0555171 0.0771681 -1.84023e-20)
(-0.122592 0.169926 0)
(-0.107755 0.176184 3.02181e-20)
(-0.095066 0.180073 -6.59997e-20)
(-0.0844369 0.181909 -4.89217e-21)
(-0.0756861 0.181944 -5.74733e-20)
(-0.0687323 0.180779 0)
(-0.0634472 0.179518 8.98632e-20)
(-0.0593908 0.17944 0)
(-0.0558493 0.181698 5.05985e-20)
(-0.0508997 0.187002 -5.43764e-21)
(-0.0425091 0.194622 2.88164e-20)
(-0.0195072 0.199799 2.4185e-21)
(-0.102495 0.14251 0)
(-0.0903524 0.148219 0)
(-0.0794086 0.150948 -3.71944e-20)
(-0.0702053 0.15133 4.87204e-20)
(-0.0628811 0.150171 0)
(-0.0573248 0.14845 6.48731e-20)
(-0.0531848 0.147177 -8.1154e-20)
(-0.0498645 0.147219 0)
(-0.0465795 0.149111 0)
(-0.04199 0.152834 -3.85814e-20)
(-0.034585 0.157705 -2.55077e-21)
(-0.0229858 0.16118 1.24325e-21)
(-0.0726767 0.108899 0)
(-0.0644321 0.113035 1.15115e-20)
(-0.0570291 0.114839 2.21503e-20)
(-0.0509673 0.114833 -4.41716e-20)
(-0.0464206 0.113827 0)
(-0.0432417 0.112708 -5.88913e-20)
(-0.0410282 0.112242 0)
(-0.0392625 0.112947 1.29949e-20)
(-0.0372385 0.115027 9.90137e-21)
(-0.0340743 0.118275 3.96974e-20)
(-0.0289567 0.122076 -7.57586e-21)
(-0.0212024 0.125095 -1.1301e-21)
(-0.047241 0.0802307 0)
(-0.0402681 0.0815989 -2.09109e-21)
(-0.0349868 0.0816392 4.865e-21)
(-0.0314425 0.0808295 -1.3362e-20)
(-0.0294421 0.0797788 -2.04584e-20)
(-0.0286142 0.0790911 6.16782e-20)
(-0.0284833 0.0792438 4.31105e-20)
(-0.028537 0.0805022 0)
(-0.0281881 0.0828092 -2.09723e-20)
(-0.0267911 0.085809 -1.99587e-20)
(-0.023767 0.0890025 4.29862e-21)
(-0.0189519 0.0918237 -3.99199e-21)
)
;

boundaryField
{
    rotor
    {
        type            movingWallVelocity;
        value           nonuniform List<vector> 
96
(
(-0.00409913 -0.125498 6.2338e-22)
(-0.0122983 -0.124961 -1.38778e-16)
(-0.0204448 -0.123889 0)
(-0.0285037 -0.122286 -2.77553e-16)
(-0.0364406 -0.12016 -2.77556e-16)
(-0.0442214 -0.11752 1.38773e-16)
(-0.0518129 -0.114376 -1.38783e-16)
(-0.0591825 -0.110742 0)
(-0.0662987 -0.106634 -2.77556e-16)
(-0.073131 -0.10207 -1.38778e-16)
(-0.0796501 -0.0970685 4.98704e-21)
(-0.0858282 -0.0916513 0)
(-0.0916387 -0.0858416 4.98704e-21)
(-0.0970568 -0.0796644 2.77556e-16)
(-0.102059 -0.073146 -2.77551e-16)
(-0.106625 -0.0663144 -1.38783e-16)
(-0.110734 -0.0591988 0)
(-0.114368 -0.0518297 -1.38778e-16)
(-0.117513 -0.0442387 4.98704e-21)
(-0.120155 -0.0364583 1.38778e-16)
(-0.122282 -0.0285217 0)
(-0.123886 -0.020463 1.38778e-16)
(-0.124959 -0.0123166 -1.38779e-16)
(-0.125497 -0.00411757 -1.38778e-16)
(-0.125498 0.00409913 -1.38778e-16)
(-0.124961 0.0122983 1.38778e-16)
(-0.123889 0.0204448 1.38778e-16)
(-0.122286 0.0285037 2.49352e-21)
(-0.12016 0.0364406 0)
(-0.11752 0.0442214 -1.38773e-16)
(-0.114376 0.0518129 -1.38778e-16)
(-0.110742 0.0591825 1.38778e-16)
(-0.106634 0.0662987 4.98704e-21)
(-0.10207 0.073131 1.38778e-16)
(-0.0970685 0.0796501 0)
(-0.0916513 0.0858282 1.38778e-16)
(-0.0858416 0.0916387 -4.16339e-16)
(-0.0796644 0.0970568 -4.98704e-21)
(-0.073146 0.102059 -1.38778e-16)
(-0.0663144 0.106625 -1.38778e-16)
(-0.0591988 0.110734 4.98704e-21)
(-0.0518297 0.114368 -1.38778e-16)
(-0.0442387 0.117513 0)
(-0.0364583 0.120155 2.49352e-21)
(-0.0285217 0.122282 0)
(-0.020463 0.123886 -1.38778e-16)
(-0.0123166 0.124959 -1.38779e-16)
(-0.00411757 0.125497 -3.1169e-22)
(0.00261148 0.133484 -1.38778e-16)
(0.00291872 0.149188 0)
(0.00322595 0.164892 -1.38778e-16)
(0.00353318 0.180596 2.77556e-16)
(0.00384042 0.1963 0)
(0.00414765 0.212004 2.77556e-16)
(0.00445488 0.227708 -2.77556e-16)
(0.00476212 0.243412 2.77556e-16)
(0.00506935 0.259116 -2.86986e-38)
(0.00537658 0.27482 0)
(0.00568382 0.290524 0)
(0.00599105 0.306228 -2.77556e-16)
(-0.00261148 -0.133484 0)
(-0.00291872 -0.149188 -1.38778e-16)
(-0.00322595 -0.164892 0)
(-0.00353318 -0.180596 0)
(-0.00384042 -0.1963 1.38778e-16)
(-0.00414765 -0.212004 1.43493e-38)
(-0.00445488 -0.227708 -4.30479e-38)
(-0.00476212 -0.243412 1.72192e-37)
(-0.00506935 -0.259116 1.38778e-16)
(-0.00537658 -0.27482 -1.38778e-16)
(-0.00568382 -0.290524 1.38778e-16)
(-0.00599105 -0.306228 1.38778e-16)
(-0.133484 0.00261148 -1.43493e-38)
(-0.149188 0.00291872 -2.77556e-16)
(-0.164892 0.00322595 0)
(-0.180596 0.00353318 0)
(-0.1963 0.00384042 -1.38778e-16)
(-0.212004 0.00414765 -1.38778e-16)
(-0.227708 0.00445488 -2.77556e-16)
(-0.243412 0.00476212 1.14794e-37)
(-0.259116 0.00506935 -1.38778e-16)
(-0.27482 0.00537658 -1.38778e-16)
(-0.290524 0.00568382 -1.38778e-16)
(-0.306228 0.00599105 1.43493e-37)
(-0.133484 0.00261148 -1.38778e-16)
(-0.149188 0.00291872 -1.38778e-16)
(-0.164892 0.00322595 -1.43493e-38)
(-0.180596 0.00353318 0)
(-0.1963 0.00384042 -1.38778e-16)
(-0.212004 0.00414765 5.73972e-38)
(-0.227708 0.00445488 -2.77556e-16)
(-0.243412 0.00476212 -1.38778e-16)
(-0.259116 0.00506935 5.73972e-38)
(-0.27482 0.00537658 0)
(-0.290524 0.00568382 0)
(-0.306228 0.00599105 -1.38778e-16)
)
;
    }
    stator
    {
        type            movingWallVelocity;
        value           nonuniform 0();
    }
    AMI1
    {
        type            cyclicAMI;
        value           nonuniform List<vector> 
48
(
(0.0137146 -0.0796654 5.91522e-22)
(0.00821123 -0.0807362 -1.98981e-22)
(0.00196889 -0.0815154 1.59314e-21)
(-0.00523335 -0.0821237 7.0535e-21)
(-0.0133732 -0.0823305 -1.21714e-20)
(-0.0223353 -0.0817942 6.52436e-21)
(-0.031858 -0.0801101 2.36399e-20)
(-0.0415297 -0.0767581 3.38266e-21)
(-0.0508116 -0.0716187 -6.50909e-21)
(-0.058973 -0.0648623 3.81918e-20)
(-0.0649173 -0.0567204 -2.33287e-20)
(-0.0681775 -0.0478135 -1.32069e-20)
(-0.0694703 -0.0391921 -7.48036e-23)
(-0.0694247 -0.0320534 3.36426e-21)
(-0.0682961 -0.0269542 -1.93357e-21)
(-0.0666107 -0.0239097 1.409e-20)