/*--------------------------------*- C++ -*----------------------------------*\
| =========                 |                                                 |
| \\      /  F ield         | OpenFOAM: The Open Source CFD Toolbox           |
|  \\    /   O peration     | Version:  v1806                                 |
|   \\  /    A nd           | Web:      www.OpenFOAM.com                      |
|    \\/     M anipulation  |                                                 |
\*---------------------------------------------------------------------------*/
FoamFile
{
    version     2.0;
    format      ascii;
    class       surfaceVectorField;
    location    "5";
    object      Uf;
}
// * * * * * * * * * * * * * * * * * * * * * * * * * * * * * * * * * * * * * //

dimensions      [0 1 -1 0 0 0 0];


internalField   nonuniform List<vector> 
1460
(
(-0.0139139 -0.132576 8.17246e-20)
(-0.0043322 -0.14727 8.5621e-20)
(-0.02223 -0.128358 -6.7003e-20)
(-0.00869586 -0.141073 7.60809e-21)
(-0.0312146 -0.123409 4.25678e-20)
(-0.0177623 -0.139282 -9.3874e-20)
(-0.0379307 -0.11758 2.22709e-19)
(-0.0246292 -0.133614 1.27651e-19)
(-0.0441924 -0.111357 -2.2553e-21)
(-0.0325534 -0.129212 4.38793e-21)
(-0.0502414 -0.104971 -1.79782e-19)
(-0.0405687 -0.124424 -3.29718e-19)
(-0.0561202 -0.0984169 -2.98473e-21)
(-0.0482488 -0.119339 6.878e-20)
(-0.062215 -0.0918688 6.18455e-19)
(-0.0563018 -0.114072 1.57798e-19)
(-0.0687094 -0.0859117 5.34339e-19)
(-0.0653526 -0.108529 6.91507e-19)
(-0.0757077 -0.0815514 -6.32274e-19)
(-0.0761065 -0.10278 -6.48869e-19)
(-0.0835272 -0.0786038 -2.66609e-19)
(-0.0883243 -0.0985823 -1.72219e-19)
(-0.101591 -0.095999 6.79863e-19)
(-0.0928374 -0.0757325 2.80215e-19)
(-0.00447633 -0.15153 1.13472e-20)
(-0.00826914 -0.158156 4.53217e-20)
(-0.00879131 -0.151189 -1.87152e-20)
(-0.00992766 -0.155416 -1.90281e-20)
(-0.0156964 -0.148749 -5.25408e-21)
(-0.0173226 -0.153065 0)
(-0.0238404 -0.145658 -8.79674e-20)
(-0.0258166 -0.149971 -1.73004e-21)
(-0.0329212 -0.141916 -3.25023e-19)
(-0.035378 -0.146334 -2.16221e-19)
(-0.0419506 -0.137892 -7.93901e-20)
(-0.0455028 -0.142458 -5.82052e-19)
(-0.0511171 -0.13358 2.36889e-19)
(-0.0559552 -0.138907 5.75122e-19)
(-0.0621385 -0.128708 2.34125e-19)
(-0.0683835 -0.135416 -6.35773e-20)
(-0.0766675 -0.122891 -5.01118e-19)
(-0.083624 -0.131093 1.62939e-19)
(-0.0941098 -0.116868 -1.78994e-19)
(-0.101658 -0.125055 -1.06615e-18)
(-0.112621 -0.111962 7.93828e-19)
(-0.12138 -0.119476 8.67006e-19)
(-0.14096 -0.115169 7.71802e-20)
(-0.130884 -0.108432 1.6717e-19)
(-0.00937795 -0.160083 1.67446e-20)
(-0.0020914 -0.170782 5.11745e-20)
(-0.0161702 -0.157652 0)
(-0.00896399 -0.168174 1.40885e-21)
(-0.024684 -0.154771 9.78105e-22)
(-0.0176342 -0.165943 -5.63192e-20)
(-0.0344799 -0.151399 -1.32835e-19)
(-0.0275994 -0.162922 6.11338e-20)
(-0.0456575 -0.147725 -4.77652e-19)
(-0.0391968 -0.159115 -2.68337e-20)
(-0.0579721 -0.144184 7.51465e-20)
(-0.0521405 -0.154856 -3.48496e-19)
(-0.0714173 -0.141176 2.73497e-19)
(-0.0662524 -0.150779 5.47581e-19)
(-0.0870118 -0.138355 -1.45327e-19)
(-0.0829893 -0.146976 -3.82501e-19)
(-0.10595 -0.134816 -3.98662e-19)
(-0.103216 -0.14283 0)
(-0.127395 -0.130162 -1.97042e-20)
(-0.126142 -0.137243 -7.38564e-20)
(-0.148774 -0.125103 1.33501e-19)
(-0.149318 -0.131291 1.80115e-19)
(-0.169942 -0.125834 -2.36884e-19)
(-0.167782 -0.12031 -2.43052e-19)
(-0.00334154 -0.178805 3.63402e-20)
(-0.000445398 -0.187736 1.17804e-20)
(-0.0116907 -0.176056 -5.54316e-20)
(-0.00799719 -0.185265 3.3084e-21)
(-0.0220782 -0.173268 2.56764e-21)
(-0.0188654 -0.182794 -5.79841e-20)
(-0.033595 -0.169945 1.71026e-19)
(-0.0305517 -0.179713 6.05875e-20)
(-0.0466469 -0.165571 1.1127e-19)
(-0.0435999 -0.175846 1.1924e-20)
(-0.0619346 -0.160537 1.24283e-19)
(-0.0590246 -0.170929 -1.04194e-19)
(-0.0801976 -0.155261 -1.13701e-19)
(-0.0766398 -0.164994 2.28994e-19)
(-0.101729 -0.149702 -2.38591e-19)
(-0.0969838 -0.158212 -4.49256e-20)
(-0.125942 -0.143803 3.32211e-19)
(-0.120632 -0.151003 0)
(-0.150535 -0.13754 1.24391e-19)
(-0.14582 -0.143411 3.36835e-19)
(-0.172562 -0.131333 -1.9663e-19)
(-0.169168 -0.136095 -2.0952e-19)
(-0.188038 -0.129562 1.82408e-19)
(-0.190213 -0.125694 -3.57926e-19)
(-0.00398088 -0.194309 -2.18885e-20)
(0.00111177 -0.203915 -1.38742e-20)
(-0.0139992 -0.191733 2.274e-21)
(-0.00776243 -0.20168 6.41281e-20)
(-0.0261534 -0.188769 0)
(-0.0205026 -0.199551 -4.03028e-20)
(-0.0395596 -0.185203 -1.033e-19)
(-0.034002 -0.196539 0)
(-0.0548116 -0.180888 -2.08966e-19)
(-0.0490915 -0.192393 -1.04627e-19)
(-0.0722154 -0.175303 -1.30816e-21)
(-0.0663392 -0.18699 -1.95477e-19)
(-0.0924644 -0.168285 3.05356e-19)
(-0.0860705 -0.179781 1.0782e-19)
(-0.116043 -0.159936 1.99768e-19)
(-0.10867 -0.170139 2.02334e-19)
(-0.141613 -0.150829 0)
(-0.133959 -0.158929 -1.5279e-19)
(-0.165944 -0.141858 0)
(-0.159344 -0.147783 2.90269e-19)
(-0.186005 -0.133849 1.71394e-19)
(-0.181038 -0.137954 -2.90388e-21)
(-0.196845 -0.12995 -9.1258e-20)
(-0.200511 -0.127168 3.38763e-19)
(-0.00295025 -0.210618 7.3176e-20)
(0.00181328 -0.220362 1.84764e-20)
(-0.0145881 -0.209038 2.19669e-20)
(-0.00898204 -0.218745 2.96931e-20)
(-0.0284316 -0.206554 -4.08272e-20)
(-0.023228 -0.217539 -7.79892e-21)
(-0.0434753 -0.202903 0)
(-0.038129 -0.214908 0)
(-0.0604212 -0.197769 -8.96677e-20)
(-0.0545939 -0.210411 -6.86662e-20)
(-0.0798075 -0.190819 -8.96677e-20)
(-0.0731362 -0.20386 -1.59766e-19)
(-0.102018 -0.181545 0)
(-0.0939263 -0.194919 1.37896e-19)
(-0.126859 -0.169961 -1.54778e-19)
(-0.117386 -0.182627 1.30297e-19)
(-0.152342 -0.157022 1.42215e-19)
(-0.142683 -0.167542 -2.90929e-19)
(-0.17501 -0.144615 2.89135e-19)
(-0.166899 -0.152272 5.32879e-19)
(-0.192158 -0.134283 -2.71805e-19)
(-0.186248 -0.139217 -3.31961e-19)
(-0.19899 -0.129332 -5.10922e-20)
(-0.203187 -0.126423 -1.26654e-19)
(-0.00394818 -0.227323 -2.61915e-20)
(0.00130492 -0.236639 1.27422e-20)
(-0.0173128 -0.226951 -2.65772e-22)
(-0.0117343 -0.236398 -7.35663e-21)
(-0.0324759 -0.225208 3.39197e-20)
(-0.0271405 -0.236452 5.63561e-20)
(-0.0487296 -0.221716 -6.94949e-20)
(-0.0430008 -0.234378 0)
(-0.0666761 -0.215987 -1.40238e-19)
(-0.0601896 -0.229704 -2.11168e-20)
(-0.0866995 -0.207497 6.81202e-20)
(-0.0790454 -0.222046 -2.79289e-19)
(-0.109228 -0.1959 2.7143e-19)
(-0.0999162 -0.211127 4.58886e-19)
(-0.133803 -0.181048 -5.98336e-21)
(-0.123013 -0.196305 -7.46367e-20)
(-0.158132 -0.164093 1.05508e-19)
(-0.147207 -0.177795 -1.46671e-19)
(-0.178718 -0.147746 -9.70057e-20)
(-0.169575 -0.15838 2.32908e-19)
(-0.19317 -0.134514 -1.0945e-19)
(-0.186635 -0.141546 -2.31543e-19)
(-0.197054 -0.129091 2.2555e-19)
(-0.201534 -0.125137 1.2147e-19)
(-0.00649098 -0.244638 3.2239e-20)
(-0.000860514 -0.25266 -5.39854e-21)
(-0.0215406 -0.245801 4.96342e-20)
(-0.016158 -0.254803 -2.19689e-20)
(-0.03746 -0.244995 2.23072e-20)
(-0.0321533 -0.255955 3.8188e-20)
(-0.0542265 -0.241711 4.97045e-20)
(-0.0482593 -0.254182 -4.08625e-20)
(-0.0723661 -0.235258 -1.61293e-19)
(-0.0652529 -0.249304 4.05887e-21)
(-0.0921967 -0.22525 1.09307e-19)
(-0.0836399 -0.240691 -1.90165e-19)
(-0.114001 -0.21147 1.10986e-19)
(-0.103826 -0.227992 2.30268e-19)
(-0.137253 -0.193771 -2.1692e-19)
(-0.125783 -0.210996 -2.90138e-19)
(-0.159762 -0.17323 -1.64814e-20)
(-0.148326 -0.189873 6.56046e-20)
(-0.178279 -0.1529 9.99442e-20)
(-0.168747 -0.166976 -8.55524e-20)
(-0.190726 -0.136163 1.05901e-19)
(-0.183987 -0.146258 1.7986e-19)
(-0.193003 -0.130492 1.1169e-19)
(-0.197522 -0.124446 -7.8111e-20)
(-0.0107802 -0.262786 -6.06702e-20)
(-0.00522798 -0.268065 5.89275e-21)
(-0.0269999 -0.265231 -3.39016e-20)
(-0.0217428 -0.273562 -4.06467e-20)
(-0.0430489 -0.264739 -2.49098e-20)
(-0.03727 -0.274726 1.61047e-20)
(-0.0594413 -0.261293 -8.75645e-20)
(-0.0528692 -0.272282 -4.16985e-20)
(-0.0769305 -0.254236 -2.45351e-20)
(-0.0689414 -0.266588 -4.49232e-22)
(-0.0959055 -0.242935 -7.19016e-20)
(-0.0860483 -0.257057 8.08666e-20)
(-0.11639 -0.227396 -1.72086e-19)
(-0.105104 -0.243349 1.60695e-20)
(-0.137809 -0.207635 -1.93956e-21)
(-0.12577 -0.225187 -8.99822e-20)
(-0.15833 -0.184568 -2.73821e-21)
(-0.146814 -0.202728 1.58869e-19)
(-0.175137 -0.160976 -4.41328e-21)
(-0.165738 -0.177767 -7.84603e-20)
(-0.186397 -0.140621 1.86152e-19)
(-0.179931 -0.153982 7.40037e-20)
(-0.188549 -0.134779 9.83282e-21)
(-0.192626 -0.125756 1.84373e-19)
(-0.0164816 -0.281281 2.54801e-20)
(-0.0117333 -0.280806 2.11473e-20)
(-0.0325723 -0.28354 9.89125e-21)
(-0.0265941 -0.28865 2.90951e-22)
(-0.0477296 -0.281963 0)
(-0.04026 -0.287565 2.40821e-20)
(-0.0629162 -0.277533 4.67349e-20)
(-0.0545669 -0.282635 0)
(-0.0788336 -0.268961 1.0373e-19)
(-0.0684701 -0.275529 8.38451e-22)
(-0.0966346 -0.256737 1.68247e-19)
(-0.0844384 -0.265311 1.34281e-20)
(-0.116172 -0.240559 1.00668e-19)
(-0.102602 -0.251687 1.0423e-19)
(-0.136248 -0.220228 7.31272e-20)
(-0.122388 -0.234348 -2.58196e-20)
(-0.155258 -0.196427 8.39978e-20)
(-0.142701 -0.212872 -3.3386e-21)
(-0.17102 -0.171302 0)
(-0.161149 -0.188283 0)
(-0.182014 -0.148327 -1.05785e-19)
(-0.175428 -0.163478 0)
(-0.18481 -0.141892 -1.06766e-19)
(-0.188694 -0.130303 -1.05785e-19)
(-0.0261742 -0.29494 -5.38809e-21)
(-0.016014 -0.280563 1.77617e-21)
(-0.0367305 -0.291892 1.36968e-20)
(-0.0245296 -0.281735 -1.46709e-20)
(-0.0482785 -0.28781 2.43074e-20)
(-0.0368106 -0.276669 1.44599e-20)
(-0.0613056 -0.280892 -4.40646e-20)
(-0.0481682 -0.26861 -1.17335e-20)
(-0.0754022 -0.271653 -8.63055e-20)
(-0.0602103 -0.261509 -2.73149e-20)
(-0.0917136 -0.259475 -5.08494e-20)
(-0.0753432 -0.25418 -4.96103e-20)
(-0.110935 -0.244446 -1.83393e-20)
(-0.0939381 -0.243943 -3.19845e-20)
(-0.131362 -0.225882 -8.89362e-20)
(-0.113961 -0.230247 -2.1477e-20)
(-0.150609 -0.203985 -7.93122e-20)
(-0.134498 -0.212771 -8.00086e-20)
(-0.166758 -0.180054 0)
(-0.153521 -0.191883 1.4638e-20)
(-0.1787 -0.156677 0)
(-0.168959 -0.169327 -1.0721e-20)
(-0.180072 -0.147827 1.62206e-20)
(-0.186843 -0.136669 0)
(-0.0133288 -0.279743 -8.8932e-21)
(0.00583505 -0.235611 -5.05614e-21)
(-0.0269308 -0.264323 -1.38213e-20)
(-0.00850827 -0.22996 -5.20144e-21)
(-0.0387267 -0.25532 -1.99213e-20)
(-0.022705 -0.224213 -1.25672e-20)
(-0.0497285 -0.24882 5.4509e-21)
(-0.0333915 -0.218126 -3.02535e-21)
(-0.0629065 -0.243678 9.17112e-21)
(-0.0452363 -0.214898 7.38347e-21)
(-0.0793726 -0.237756 -2.7985e-20)
(-0.0603791 -0.213741 -6.21611e-21)
(-0.0986855 -0.228423 -3.19313e-20)
(-0.0787946 -0.211498 -6.22728e-21)
(-0.119744 -0.215445 -1.18727e-20)
(-0.0995396 -0.205754 -1.15521e-20)
(-0.140137 -0.198866 1.47677e-20)
(-0.120779 -0.195579 -4.27331e-22)
(-0.157878 -0.1795 4.18855e-21)
(-0.140441 -0.180901 1.81507e-20)
(-0.171821 -0.15897 5.0993e-21)
(-0.156781 -0.16319 -3.78053e-20)
(-0.18196 -0.139508 1.63643e-20)
(-0.169204 -0.144591 2.46323e-20)
(-0.104034 -0.0716163 -4.75499e-19)
(-0.115432 -0.0936137 -2.13446e-19)
(-0.116206 -0.0660461 -8.69072e-20)
(-0.12895 -0.0905483 -6.75058e-19)
(-0.12729 -0.0599391 3.89082e-19)
(-0.140913 -0.0869138 7.42529e-19)
(-0.135387 -0.0541606 8.8243e-20)
(-0.150062 -0.0829516 -7.08924e-20)
(-0.139598 -0.048858 -3.83359e-19)
(-0.155578 -0.0783927 1.30956e-19)
(-0.140227 -0.0434355 9.78024e-20)
(-0.15738 -0.0725077 -3.90488e-19)
(-0.138169 -0.0365847 4.80381e-19)
(-0.155929 -0.065193 3.49332e-19)
(-0.134013 -0.0269991 0)
(-0.151935 -0.0570339 -1.79666e-21)
(-0.130318 -0.0145014 0)
(-0.146833 -0.044346 1.49795e-19)
(-0.129654 -0.000512424 -2.51709e-20)
(-0.141874 -0.0269311 -8.08444e-20)
(-0.131129 0.0095601 -1.90338e-20)
(-0.138205 -0.0108729 1.72533e-20)
(-0.136509 0.0010624 6.25131e-21)
(-0.147554 -0.105826 -4.2856e-19)
(-0.15861 -0.111451 -1.45683e-19)
(-0.16113 -0.103755 1.39611e-19)
(-0.17312 -0.108003 -3.9545e-19)
(-0.170709 -0.101865 2.79861e-19)
(-0.183808 -0.104893 4.31312e-19)
(-0.176303 -0.0995022 -1.09198e-20)
(-0.190523 -0.102133 7.31378e-20)
(-0.178361 -0.0957049 1.33437e-19)
(-0.193586 -0.0994263 2.53447e-20)
(-0.176374 -0.0895706 -1.42634e-19)
(-0.193041 -0.0970568 1.85666e-21)
(-0.171813 -0.0811445 -1.45139e-19)
(-0.190406 -0.0913162 -4.73413e-19)
(-0.165574 -0.0691048 1.49533e-19)
(-0.185119 -0.0835129 5.25366e-20)
(-0.158337 -0.0522612 7.02567e-20)
(-0.177767 -0.0698958 1.55185e-19)
(-0.151377 -0.0319353 -3.90437e-20)
(-0.168783 -0.0484364 -2.12465e-20)
(-0.147367 -0.0121097 4.3705e-20)
(-0.159198 -0.0230556 4.5337e-20)
(-0.152204 0.00204813 -3.59278e-23)
(-0.183214 -0.115888 -1.07199e-19)
(-0.186413 -0.120987 -3.61867e-19)
(-0.194711 -0.111793 -1.07199e-19)
(-0.198438 -0.116837 2.57613e-19)
(-0.202431 -0.108137 2.23648e-19)
(-0.206377 -0.113485 -1.82153e-19)
(-0.206724 -0.105217 1.05229e-19)
(-0.210937 -0.111008 1.40041e-19)
(-0.207856 -0.103206 -1.15339e-19)
(-0.212964 -0.109475 -1.19652e-19)
(-0.20694 -0.101603 -3.33339e-19)
(-0.213275 -0.108402 1.91542e-19)
(-0.202692 -0.0976292 -2.78655e-19)
(-0.211727 -0.10758 -6.05506e-19)
(-0.195841 -0.0886721 5.53231e-20)
(-0.208503 -0.104379 1.92953e-19)
(-0.186109 -0.0710544 6.35703e-20)
(-0.202971 -0.0956189 -1.40469e-19)
(-0.17457 -0.043338 6.5429e-20)
(-0.194576 -0.0756979 -3.94701e-20)
(-0.166559 -0.0125929 1.82216e-21)
(-0.182578 -0.0410366 6.13475e-20)
(-0.168117 -0.00208047 -1.63538e-20)
(-0.203089 -0.120927 2.17375e-21)
(-0.201642 -0.123942 -2.04809e-19)
(-0.211558 -0.117267 1.84333e-19)
(-0.210442 -0.119315 1.47422e-19)
(-0.216366 -0.114882 -2.7331e-19)
(-0.215381 -0.115757 -1.87538e-19)
(-0.218539 -0.11368 -8.83476e-20)
(-0.217667 -0.113315 -5.15862e-21)
(-0.21926 -0.113245 1.92551e-19)
(-0.21859 -0.111929 0)
(-0.219192 -0.113138 -8.10901e-20)
(-0.219231 -0.111424 1.95232e-19)
(-0.218553 -0.112867 -1.32959e-19)
(-0.220024 -0.111873 -2.68262e-19)
(-0.21621 -0.109873 -2.57726e-21)
(-0.220686 -0.112574 -1.53254e-20)
(-0.210406 -0.0985938 -2.46948e-19)
(-0.220004 -0.110844 -2.24985e-20)
(-0.19953 -0.0719417 -4.43489e-20)
(-0.216293 -0.0993849 -6.13446e-20)
(-0.186071 -0.0300032 4.34526e-20)
(-0.207228 -0.0666024 3.8659e-20)
(-0.188989 -0.0120226 -3.07523e-20)
(-0.209704 -0.121781 -6.22973e-20)
(-0.206781 -0.123674 3.09508e-19)
(-0.21462 -0.117534 -2.29666e-19)
(-0.21204 -0.118864 -4.76803e-19)
(-0.216725 -0.114265 8.59701e-20)
(-0.214266 -0.115234 2.59144e-19)
(-0.217605 -0.111891 8.59701e-20)
(-0.215182 -0.112476 -5.16316e-20)
(-0.218502 -0.110543 0)
(-0.216134 -0.110377 2.86299e-19)
(-0.220095 -0.11047 9.39926e-21)
(-0.217968 -0.108945 -1.42658e-19)
(-0.222405 -0.111762 -1.50316e-19)
(-0.220736 -0.108762 8.53905e-20)
(-0.224858 -0.113631 -3.55601e-20)
(-0.224516 -0.110129 -1.52508e-19)
(-0.225429 -0.111374 1.68484e-19)
(-0.228261 -0.112753 1.25347e-19)
(-0.220338 -0.0935806 2.22759e-20)
(-0.229989 -0.111236 8.12394e-20)
(-0.207279 -0.0488043 -3.6649e-20)
(-0.227984 -0.0894791 -1.96553e-20)
(-0.215649 -0.028598 -3.60115e-20)
(-0.209119 -0.12064 -1.05532e-19)
(-0.205901 -0.122321 4.25842e-20)
(-0.211711 -0.116362 1.46267e-20)
(-0.208959 -0.117408 9.26709e-20)
(-0.212854 -0.113115 1.22006e-19)
(-0.210349 -0.113784 -7.76199e-20)
(-0.214006 -0.110554 1.49718e-19)
(-0.211745 -0.11085 -1.42187e-19)
(-0.215942 -0.10846 1.45037e-19)
(-0.213952 -0.108303 4.06558e-19)
(-0.218971 -0.106965 -6.81678e-20)
(-0.217291 -0.106001 -3.15559e-20)
(-0.223171 -0.106775 8.52888e-20)
(-0.221759 -0.104499 -3.57937e-20)
(-0.228333 -0.10892 8.94217e-21)
(-0.227384 -0.104467 1.29408e-19)
(-0.23356 -0.112133 3.64056e-20)
(-0.233395 -0.107227 -5.51272e-20)
(-0.235472 -0.105795 3.97055e-20)
(-0.23817 -0.111428 3.68397e-20)
(-0.227516 -0.0679198 -1.60115e-20)
(-0.242395 -0.103439 2.68122e-21)
(-0.242625 -0.0492112 -3.05858e-20)
(-0.20557 -0.118879 2.44381e-19)
(-0.20216 -0.120802 -1.80491e-19)
(-0.207537 -0.114552 7.88047e-22)
(-0.204459 -0.115413 3.50985e-19)
(-0.209324 -0.111189 -3.46778e-19)
(-0.206274 -0.111529 -2.52046e-19)
(-0.211931 -0.108276 1.1444e-19)
(-0.208903 -0.108244 -8.12771e-21)
(-0.215649 -0.105673 2.30506e-19)
(-0.212781 -0.105226 1.14273e-19)
(-0.220488 -0.103407 1.6508e-21)
(-0.218078 -0.102355 -1.72491e-21)
(-0.226322 -0.101962 7.12418e-21)
(-0.224593 -0.100017 -3.42325e-21)
(-0.232658 -0.102539 6.57468e-20)
(-0.231707 -0.0989597 6.76916e-20)
(-0.239389 -0.106525 -5.57925e-20)
(-0.238632 -0.100426 -2.21819e-21)
(-0.245517 -0.108574 0)
(-0.244141 -0.105524 -1.9893e-20)
(-0.243868 -0.0829041 -8.51331e-21)
(-0.250778 -0.107993 -2.42589e-20)
(-0.264501 -0.0686512 -7.03647e-22)
(-0.200819 -0.116985 -7.8111e-20)
(-0.197369 -0.120008 -8.00675e-21)
(-0.203039 -0.112075 9.92904e-20)
(-0.199793 -0.113386 1.25315e-19)
(-0.205848 -0.108272 9.10713e-20)
(-0.202519 -0.108756 3.27334e-20)
(-0.209979 -0.104873 -8.57382e-21)
(-0.20658 -0.104808 -2.13092e-20)
(-0.215672 -0.101649 -1.20911e-19)
(-0.212284 -0.101047 1.28318e-20)
(-0.22272 -0.0986965 -7.01776e-21)
(-0.219615 -0.0974325 -3.59202e-19)
(-0.230545 -0.0967016 5.72088e-20)
(-0.227884 -0.0943107 2.35835e-19)
(-0.237943 -0.0965581 -7.43302e-22)
(-0.235852 -0.0930029 -1.71798e-19)
(-0.244779 -0.0997554 3.45326e-20)
(-0.243022 -0.0940316 1.35219e-20)
(-0.251944 -0.105634 -4.64247e-20)
(-0.248745 -0.0982982 4.2592e-20)
(-0.255943 -0.0922407 -1.67471e-20)
(-0.255176 -0.105283 -2.31228e-20)
(-0.279196 -0.0826072 7.87691e-21)
(-0.196038 -0.116103 1.98142e-19)
(-0.19315 -0.121337 7.22074e-20)
(-0.199018 -0.109867 5.88496e-20)
(-0.196391 -0.1126 7.36279e-20)
(-0.203095 -0.105199 -8.15072e-20)
(-0.200388 -0.106561 -1.6013e-19)
(-0.208912 -0.100954 2.15292e-22)
(-0.206037 -0.101535 -7.27187e-20)
(-0.216527 -0.0967472 -2.26878e-19)
(-0.213385 -0.0966711 7.00876e-20)
(-0.225239 -0.0929214 -1.16245e-19)
(-0.221784 -0.0919593 -1.77881e-19)
(-0.233785 -0.0903285 5.87641e-21)
(-0.230005 -0.088114 1.29687e-19)
(-0.241526 -0.090084 -1.59186e-19)
(-0.23724 -0.0863389 9.37188e-21)
(-0.248312 -0.0928775 2.34707e-20)
(-0.24369 -0.0873293 -4.25506e-20)
(-0.25525 -0.099485 6.76616e-20)
(-0.249838 -0.0911112 6.47853e-20)
(-0.263547 -0.0959226 1.69351e-21)
(-0.257203 -0.097873 5.68711e-21)
(-0.285745 -0.087628 -6.64257e-21)
(-0.193101 -0.117756 -5.51182e-20)
(-0.190645 -0.125491 0)
(-0.197472 -0.109283 -1.47176e-19)
(-0.195292 -0.113991 3.60853e-21)
(-0.203175 -0.102919 -1.52213e-19)
(-0.200592 -0.105716 -7.12778e-20)
(-0.210504 -0.0972235 -3.16601e-21)
(-0.207157 -0.0989096 -1.30874e-19)
(-0.218802 -0.0917227 1.21929e-19)
(-0.214532 -0.092579 1.26801e-19)
(-0.226836 -0.0868831 7.00985e-20)
(-0.221602 -0.0867474 1.72772e-20)
(-0.23384 -0.083647 1.3268e-19)
(-0.227455 -0.082079 6.17251e-20)
(-0.240169 -0.0828413 1.27498e-19)
(-0.232254 -0.079495 1.17064e-19)
(-0.246805 -0.0848998 0)
(-0.237334 -0.079619 0)
(-0.255004 -0.0899963 4.55521e-21)
(-0.244207 -0.0822968 -1.80127e-20)
(-0.266681 -0.0910662 -2.16444e-21)
(-0.255995 -0.0873283 1.56091e-20)
(-0.282941 -0.0808545 -1.4867e-21)
(-0.192862 -0.121306 5.97918e-20)
(-0.18773 -0.129712 0)
(-0.198561 -0.109979 7.97882e-20)
(-0.193679 -0.11563 2.44981e-20)
(-0.20486 -0.101161 -5.08219e-20)
(-0.199273 -0.104737 8.71068e-20)
(-0.211546 -0.0935755 5.88089e-22)
(-0.204808 -0.0957513 -5.87606e-20)
(-0.217652 -0.0867941 2.29363e-20)
(-0.209715 -0.0878819 8.33983e-20)
(-0.22236 -0.0811604 6.67955e-21)
(-0.213263 -0.0811287 -2.85146e-20)
(-0.22588 -0.0771723 4.54762e-20)
(-0.215476 -0.0758598 8.10176e-20)
(-0.229755 -0.0750519 -1.03916e-20)
(-0.217465 -0.0723027 -9.48871e-20)
(-0.236242 -0.0747937 -1.81813e-20)
(-0.221226 -0.0705015 0)
(-0.247906 -0.0762628 -8.90667e-21)
(-0.228838 -0.0698492 -1.16199e-20)
(-0.266067 -0.0730173 1.43645e-20)
(-0.245255 -0.0712554 2.23895e-20)
(-0.267165 -0.0602769 -5.35138e-21)
(-0.189318 -0.122812 -3.14167e-20)
(-0.178094 -0.127181 -1.47338e-20)
(-0.195082 -0.109266 3.19093e-20)
(-0.184399 -0.112184 -1.00918e-20)
(-0.199828 -0.0982712 7.19877e-20)
(-0.188927 -0.0997314 6.36675e-20)
(-0.203411 -0.0890802 2.34771e-20)
(-0.191938 -0.0893718 8.86791e-21)
(-0.205479 -0.081356 3.68047e-20)
(-0.193363 -0.0807217 -3.46412e-20)
(-0.206219 -0.0751423 4.61446e-20)
(-0.193363 -0.0737194 -3.00787e-20)
(-0.206664 -0.070439 -5.99943e-20)
(-0.192786 -0.0683464 7.03923e-21)
(-0.208467 -0.0669385 -8.45507e-20)
(-0.193026 -0.0642911 -5.86283e-20)
(-0.213819 -0.0637554 4.64771e-21)
(-0.195693 -0.0608855 0)
(-0.226519 -0.0590546 1.40014e-20)
(-0.202357 -0.0560187 1.43788e-20)
(-0.255524 -0.04307 -8.77952e-22)
(-0.215453 -0.0463821 1.07716e-20)
(-0.227388 -0.019371 -5.79562e-21)
(-0.130381 0.013689 -5.35233e-21)
(-0.141493 0.00039583 -4.23676e-21)
(-0.125549 0.021862 0)
(-0.139524 0.00747348 3.80288e-20)
(-0.120295 0.0295901 4.54796e-20)
(-0.136074 0.016308 0)
(-0.114842 0.0368395 4.54796e-20)
(-0.132012 0.0250294 1.26672e-19)
(-0.109199 0.0435256 3.60948e-19)
(-0.127566 0.0332407 -2.31856e-19)
(-0.103305 0.0496963 -4.35735e-19)
(-0.122912 0.0409263 4.51927e-19)
(-0.0971292 0.0556291 -4.43947e-19)
(-0.11816 0.0484139 -7.27331e-19)
(-0.0909489 0.0618164 6.15037e-19)
(-0.113188 0.0565533 5.14588e-19)
(-0.0854713 0.0683386 7.72309e-20)
(-0.107784 0.0657363 -2.31075e-19)
(-0.0816366 0.0753 5.37446e-19)
(-0.102409 0.0766591 2.81695e-19)
(-0.0789906 0.0831542 3.55434e-19)
(-0.0987918 0.0889916 7.35202e-19)
(-0.0965151 0.102441 -8.20226e-19)
(-0.0761376 0.0927186 -4.608e-19)
(-0.150465 -0.00074304 3.93559e-20)
(-0.156891 0.00270827 6.73693e-22)
(-0.149562 0.0065418 3.87493e-20)
(-0.155753 0.0082264 6.20226e-21)
(-0.14739 0.0159746 8.18691e-20)
(-0.153236 0.01749 0)
(-0.144295 0.0253628 -1.54575e-19)
(-0.149958 0.0270699 8.52963e-20)
(-0.140666 0.0342475 -1.53867e-19)
(-0.146268 0.0366883 -1.73262e-19)
(-0.136901 0.0428139 1.65024e-19)
(-0.142521 0.0466419 -1.86967e-19)
(-0.132794 0.0518908 2.40204e-19)
(-0.139129 0.057058 8.28952e-20)
(-0.128005 0.0632756 -3.41399e-19)
(-0.135702 0.0697465 2.99633e-19)
(-0.122323 0.0782067 -1.11727e-20)
(-0.131204 0.0852188 -7.81988e-19)
(-0.116695 0.0958132 4.87088e-19)
(-0.125293 0.103535 4.97619e-19)
(-0.112258 0.114479 -4.56431e-19)
(-0.120193 0.123497 4.93251e-19)
(-0.116158 0.143191 -8.12733e-19)
(-0.109058 0.132964 -1.62842e-19)
(-0.162284 0.00808748 -3.43403e-20)
(-0.17181 4.29203e-05 2.1623e-20)
(-0.159547 0.0166167 -3.48836e-20)
(-0.169886 0.00731163 -5.66389e-21)
(-0.156222 0.026168 4.16644e-21)
(-0.167366 0.017679 -5.66663e-20)
(-0.152436 0.0363146 7.39277e-20)
(-0.164012 0.0286593 1.79168e-19)
(-0.148802 0.0474619 -2.0557e-19)
(-0.159866 0.0408136 -4.35931e-20)
(-0.145273 0.0594911 -2.77186e-19)
(-0.155717 0.0534583 -5.12274e-19)
(-0.142395 0.072849 1.34472e-19)
(-0.151792 0.0678345 1.21171e-19)
(-0.139532 0.0887557 -1.42339e-19)
(-0.148177 0.0849914 -9.41733e-20)
(-0.135873 0.108226 -2.79106e-19)
(-0.143889 0.105673 -3.89458e-19)
(-0.131201 0.130021 5.03831e-19)
(-0.138262 0.128903 4.23397e-19)
(-0.126255 0.151454 1.48203e-19)
(-0.132466 0.152052 4.03366e-19)
(-0.127077 0.172352 -3.67551e-19)
(-0.121548 0.170314 -2.41551e-19)
(-0.179356 0.00124283 5.14299e-20)
(-0.188372 -0.00091627 -2.27188e-21)
(-0.177392 0.0104389 -2.71095e-20)
(-0.186327 0.00738928 5.52765e-20)
(-0.17451 0.0219096 1.18767e-19)
(-0.183878 0.018902 -1.04327e-19)
(-0.170819 0.0342426 6.07152e-20)
(-0.180661 0.0312847 2.76284e-19)
(-0.165996 0.047854 -3.5253e-19)
(-0.176579 0.0448009 -2.1575e-19)
(-0.161149 0.063766 -1.13484e-19)
(-0.171454 0.0607814 -5.343e-19)
(-0.156096 0.082514 -1.12646e-19)
(-0.165557 0.0786331 4.28479e-19)
(-0.15076 0.104465 -3.44427e-19)
(-0.158993 0.0993846 -4.66527e-20)
(-0.144991 0.128931 3.22461e-19)
(-0.151932 0.123404 -3.71557e-19)
(-0.138791 0.153389 3.20241e-19)
(-0.144453 0.148556 4.35177e-19)
(-0.132613 0.17494 -1.17669e-19)
(-0.137246 0.171408 -1.97816e-19)
(-0.130711 0.189539 -1.80395e-19)
(-0.126938 0.191966 -9.63193e-20)
(-0.194978 0.00404148 1.29068e-21)
(-0.204232 -0.00158791 -1.38945e-20)
(-0.192641 0.0143502 -2.10891e-20)
(-0.202409 0.00750089 2.5874e-20)
(-0.189742 0.0269523 5.22642e-20)
(-0.200379 0.0207036 -4.22595e-20)
(-0.186095 0.0408441 6.65395e-22)
(-0.197326 0.0347591 1.0017e-19)
(-0.181687 0.0564558 -3.98154e-19)
(-0.1931 0.0503207 -2.25402e-20)
(-0.175887 0.0741289 7.76265e-21)
(-0.187542 0.0679687 -2.92745e-19)
(-0.168792 0.0947851 5.04861e-19)
(-0.180016 0.0880529 3.1258e-19)
(-0.160513 0.11873 -7.21626e-20)
(-0.170226 0.11103 4.81791e-20)
(-0.151562 0.144277 -2.67037e-19)
(-0.159169 0.136475 -1.08491e-19)
(-0.142758 0.16807 -8.81637e-20)
(-0.148298 0.161431 1.41325e-19)
(-0.134851 0.18729 -2.57761e-19)
(-0.13872 0.182241 -9.21138e-20)
(-0.130821 0.197081 -3.04179e-19)
(-0.128157 0.200931 -3.46159e-21)
(-0.210909 0.00249827 1.07339e-20)
(-0.220507 -0.00197563 1.08457e-20)
(-0.20959 0.0145208 4.66511e-21)
(-0.2191 0.009012 0)
(-0.207188 0.0288423 4.66511e-21)
(-0.217994 0.0235448 -2.21933e-20)
(-0.203453 0.0443636 7.90875e-20)
(-0.215331 0.0388266 -6.32534e-20)
(-0.198212 0.0617883 8.90416e-20)
(-0.210689 0.0557313 -6.18072e-20)
(-0.191018 0.0816008 9.95405e-21)
(-0.204002 0.0745234 1.5355e-19)
(-0.181515 0.104169 -1.52547e-19)
(-0.194724 0.095644 -1.25843e-19)
(-0.169825 0.129148 1.20048e-20)
(-0.18205 0.119353 -1.42639e-19)
(-0.157011 0.154279 3.07716e-19)
(-0.166966 0.144575 2.90935e-19)
(-0.144908 0.176103 1.38618e-19)
(-0.152057 0.168111 1.44871e-19)
(-0.134861 0.192239 -1.37345e-19)
(-0.139457 0.186399 -1.05204e-19)
(-0.129879 0.198161 -2.44648e-19)
(-0.127125 0.202414 -1.34126e-19)
(-0.227471 0.00403539 -1.63678e-23)
(-0.236673 -0.00130301 -7.31155e-21)
(-0.227192 0.0175865 -2.70028e-20)
(-0.236535 0.0118669 1.34343e-20)
(-0.225478 0.0330327 -9.10196e-20)
(-0.23661 0.0274936 3.13127e-20)
(-0.221921 0.0495909 -2.08165e-19)
(-0.234468 0.0436308 -5.84399e-21)
(-0.215979 0.0678122 6.5838e-22)
(-0.229609 0.0610769 -2.00141e-19)
(-0.207243 0.0881379 1.8323e-20)
(-0.221724 0.0801235 3.11915e-19)
(-0.195319 0.110909 -1.15774e-19)
(-0.210472 0.101201 8.71405e-20)
(-0.180203 0.135457 1.39868e-19)
(-0.195194 0.124395 -9.22325e-20)
(-0.163301 0.159251 1.25922e-19)
(-0.176508 0.148349 1.19098e-19)
(-0.147364 0.178878 -1.03551e-19)
(-0.157427 0.169957 1.79328e-19)
(-0.134634 0.192332 -2.13788e-19)
(-0.141202 0.185973 -9.69016e-20)
(-0.129273 0.195548 -1.11464e-19)
(-0.125578 0.200012 -1.10305e-19)
(-0.244667 0.00657076 5.94191e-21)
(-0.252657 0.000894661 -2.26073e-20)
(-0.245821 0.0217795 7.29181e-20)
(-0.254746 0.01628 -7.13045e-21)
(-0.244953 0.0379195 1.18941e-19)
(-0.255909 0.0324487 8.06106e-20)
(-0.241547 0.0548974 4.60731e-21)
(-0.254063 0.0487704 6.02297e-20)
(-0.234865 0.073204 1.10775e-19)
(-0.248975 0.0658936 -9.62069e-20)
(-0.224581 0.0931815 3.85053e-19)
(-0.240049 0.084382 1.99048e-19)
(-0.210437 0.11508 1.12232e-19)
(-0.226965 0.104624 2.8917e-19)
(-0.192379 0.138186 -1.13437e-19)
(-0.20952 0.126533 -1.84793e-19)
(-0.171783 0.160114 1.75966e-19)
(-0.188106 0.148747 -9.0909e-20)
(-0.15187 0.177716 1.87148e-19)
(-0.165413 0.168447 1.83237e-19)
(-0.135788 0.189306 7.51923e-21)
(-0.145314 0.182785 7.59766e-21)
(-0.130216 0.191147 1.10741e-19)
(-0.124588 0.19563 -8.54924e-20)
(-0.262686 0.0108193 -3.6362e-20)
(-0.268064 0.00517333 -1.32475e-20)
(-0.265095 0.0271926 -2.84114e-23)
(-0.27339 0.021834 -3.411e-20)
(-0.264605 0.043436 2.08768e-20)
(-0.274651 0.0375917 2.10818e-20)
(-0.26101 0.0599488 -4.10608e-20)
(-0.272225 0.0532844 -4.79156e-20)
(-0.253706 0.0775009 -1.02266e-20)
(-0.266356 0.0694017 -1.34926e-20)
(-0.242038 0.0964544 1.02277e-19)
(-0.256498 0.0864753 -1.11359e-19)
(-0.226086 0.11686 -8.42011e-21)
(-0.2423 0.105475 8.22545e-20)
(-0.20593 0.138049 -1.61871e-19)
(-0.223616 0.125981 -1.7797e-19)
(-0.182696 0.158037 -8.24646e-20)
(-0.200773 0.146645 -8.3274e-20)
(-0.159404 0.174079 0)
(-0.175826 0.16493 7.86112e-20)
(-0.139701 0.184669 1.11908e-19)
(-0.152516 0.178394 0)
(-0.133974 0.186529 -3.58622e-20)
(-0.125465 0.190599 1.11908e-19)
(-0.281131 0.0164258 -1.07397e-20)
(-0.280932 0.0115552 9.51594e-21)
(-0.283459 0.032774 -1.29527e-20)
(-0.288584 0.0267753 -7.20864e-21)
(-0.281972 0.048137 -4.83905e-20)
(-0.287679 0.0407159 -1.46365e-20)
(-0.277474 0.0633366 -2.0142e-20)
(-0.282843 0.0549883 -1.24987e-21)
(-0.26874 0.079203 -1.13229e-19)
(-0.275637 0.0688782 4.52836e-20)
(-0.256144 0.0968996 -1.31559e-19)
(-0.265186 0.0846699 -1.39109e-19)
(-0.239419 0.116206 -8.90352e-20)
(-0.251148 0.102634 6.28068e-20)
(-0.218583 0.135935 -9.87531e-20)
(-0.233221 0.122226 -8.53219e-20)
(-0.194471 0.154445 7.93904e-20)
(-0.211208 0.142157 0)
(-0.169431 0.169601 7.93904e-20)
(-0.18637 0.160047 4.46439e-20)
(-0.146931 0.180098 -1.51036e-19)
(-0.161752 0.173734 4.61517e-20)
(-0.140643 0.18274 -1.52436e-19)
(-0.129492 0.186593 -1.8707e-19)
(-0.294992 0.02619 1.0825e-20)
(-0.28123 0.0159052 6.43861e-21)
(-0.292152 0.0372479 -1.03279e-20)
(-0.282323 0.024986 1.54505e-20)
(-0.28806 0.0488812 3.16326e-20)
(-0.277283 0.037356 4.89129e-21)
(-0.281251 0.0617778 6.33362e-20)
(-0.269117 0.0487282 4.68135e-20)
(-0.271882 0.0756609 1.78844e-20)
(-0.261892 0.0605393 1.70789e-20)
(-0.259461 0.0917706 5.12078e-20)
(-0.254416 0.0754459 2.26488e-20)
(-0.244027 0.110755 5.89985e-20)
(-0.243999 0.0938155 8.52723e-20)
(-0.224913 0.13082 9.41957e-21)
(-0.229953 0.113624 9.50228e-21)
(-0.202502 0.149569 -3.05679e-20)
(-0.211993 0.133816 0)
(-0.178357 0.165184 1.60156e-20)
(-0.19065 0.152404 -8.23877e-20)
(-0.155142 0.176715 4.65835e-20)
(-0.167924 0.16738 -4.23549e-21)
(-0.146566 0.178184 0)
(-0.135508 0.184708 1.30801e-19)
(-0.28073 0.0136458 9.83033e-21)
(-0.236112 -0.00517357 7.52434e-22)
(-0.265396 0.0275207 2.67197e-20)
(-0.230606 0.00905412 4.07514e-21)
(-0.256195 0.0392471 1.7751e-20)
(-0.224946 0.0231077 1.87083e-20)
(-0.249398 0.0500503 0)
(-0.218765 0.03371 0)
(-0.244089 0.0630387 1.68381e-20)
(-0.215393 0.0454217 -1.89939e-21)
(-0.238083 0.0792871 5.05882e-20)
(-0.214118 0.0604017 9.21365e-21)
(-0.228664 0.0983811 3.2972e-20)
(-0.211787 0.0786274 3.39237e-20)
(-0.21542 0.119215 0)
(-0.205946 0.099153 -8.05933e-22)
(-0.198402 0.139293 -4.17968e-20)
(-0.195648 0.12012 -4.02094e-21)
(-0.178632 0.156632 -8.55459e-20)
(-0.180719 0.139533 -4.21453e-20)
(-0.157918 0.170228 -4.37492e-20)
(-0.162747 0.155622 -4.41141e-20)
(-0.138502 0.180211 -5.09757e-20)
(-0.144009 0.167876 0)
(-0.0718454 0.104366 -4.80004e-21)
(-0.09418 0.116529 1.91044e-19)
(-0.0661187 0.116968 -9.71114e-20)
(-0.0910785 0.13026 -3.48868e-19)
(-0.0600165 0.128278 -3.63913e-21)
(-0.0874742 0.142323 -2.97808e-19)