/*--------------------------------*- C++ -*----------------------------------*\
| =========                 |                                                 |
| \\      /  F ield         | OpenFOAM: The Open Source CFD Toolbox           |
|  \\    /   O peration     | Version:  v1806                                 |
|   \\  /    A nd           | Web:      www.OpenFOAM.com                      |
|    \\/     M anipulation  |                                                 |
\*---------------------------------------------------------------------------*/
FoamFile
{
    version     2.0;
    format      ascii;
    class       volScalarField;
    location    "1";
    object      p;
}
// * * * * * * * * * * * * * * * * * * * * * * * * * * * * * * * * * * * * * //

dimensions      [0 2 -2 0 0 0 0];


internalField   nonuniform List<scalar> 
768
(
-0.0515895
-0.0514889
-0.0513217
-0.051096
-0.0508353
-0.0504645
-0.0499228
-0.049222
-0.0483607
-0.0473691
-0.0462959
-0.0451926
-0.0483232
-0.0482759
-0.0483643
-0.0485222
-0.0485386
-0.0483505
-0.0479943
-0.0472317
-0.0461354
-0.0447981
-0.0433406
-0.0419044
-0.0467121
-0.046826
-0.0472313
-0.0476974
-0.0479693
-0.047883
-0.0473079
-0.0463667
-0.0450413
-0.0434083
-0.0416014
-0.0397832
-0.0441245
-0.0444082
-0.0450051
-0.045553
-0.045845
-0.0457773
-0.0452627
-0.0443066
-0.042904
-0.0411017
-0.0389937
-0.0366854
-0.0411977
-0.0414577
-0.0419837
-0.0424611
-0.0427305
-0.0426684
-0.0421774
-0.0412196
-0.0397568
-0.0378009
-0.0353935
-0.0326191
-0.0378281
-0.0377991
-0.0380488
-0.0383622
-0.0385861
-0.0385369
-0.0380808
-0.0371577
-0.0356095
-0.0334078
-0.0306416
-0.0274661
-0.0342852
-0.0336901
-0.0335675
-0.0337409
-0.03397
-0.0338979
-0.0333091
-0.0321199
-0.030354
-0.027921
-0.0248568
-0.0214496
-0.0308316
-0.0295307
-0.0291874
-0.0295209
-0.0300198
-0.0299678
-0.0290255
-0.0272713
-0.0248984
-0.0220387
-0.0187511
-0.0154603
-0.0274269
-0.0255146
-0.0252719
-0.0261559
-0.0271928
-0.0272485
-0.025964
-0.0235982
-0.0205323
-0.0171482
-0.0137056
-0.0105162
-0.0236161
-0.0213894
-0.0214737
-0.0230636
-0.0247831
-0.0251619
-0.0238594
-0.0211542
-0.0176782
-0.0139578
-0.0103236
-0.00704213
-0.0191399
-0.0167911
-0.01737
-0.0198397
-0.0223752
-0.0232946
-0.022167
-0.0193999
-0.0157832
-0.0119886
-0.00833586
-0.00500442
-0.0143013
-0.0120879
-0.0131381
-0.0165602
-0.0198879
-0.0214032
-0.0206403
-0.0180427
-0.0145065
-0.0107993
-0.00722098
-0.00389345
-0.0441231
-0.0431485
-0.0422905
-0.0415896
-0.0411166
-0.040863
-0.0407568
-0.04064
-0.0403475
-0.039855
-0.0392787
-0.0387719
-0.04062
-0.0395388
-0.0386791
-0.0381324
-0.0380051
-0.0382121
-0.0385809
-0.0387947
-0.0385755
-0.0378669
-0.0368457
-0.0359715
-0.0380572
-0.036463
-0.0351516
-0.0343649
-0.0341434
-0.0344103
-0.0349779
-0.0354296
-0.035341
-0.0345687
-0.033533
-0.0327745
-0.0343001
-0.0320788
-0.0303583
-0.0293093
-0.0288501
-0.0289449
-0.0293428
-0.0297364
-0.0297937
-0.0294742
-0.0290981
-0.0289205
-0.0297523
-0.0272618
-0.0254673
-0.0243663
-0.0238215
-0.023681
-0.0237636
-0.023881
-0.0238735
-0.0238539
-0.0242668
-0.0248788
-0.0243734
-0.0219323
-0.020336
-0.0194213
-0.018942
-0.0187057
-0.0185968
-0.0185133
-0.0183901
-0.0182246
-0.0187094
-0.0203996
-0.0183818
-0.0161505
-0.0148556
-0.0142345
-0.0139632
-0.0137895
-0.0136196
-0.0132662
-0.0129882
-0.0127683
-0.0129616
-0.015097
-0.0126046
-0.0105865
-0.009551
-0.00919822
-0.00909749
-0.00893424
-0.00854981
-0.00816124
-0.00764369
-0.00720493
-0.00711117
-0.00871617
-0.00787721
-0.00602878
-0.00506181
-0.00479183
-0.00479108
-0.00467767
-0.00427236
-0.00359503
-0.00264728
-0.00163144
-0.000825637
-0.00133703
-0.00438666
-0.00258652
-0.00166734
-0.00136783
-0.00129583
-0.00112914
-0.000651123
0.000237769
0.0015697
0.00324201
0.00519203
0.00629544
-0.00222766
-0.000255394
0.000840931
0.00125569
0.00137437
0.00158244
0.00213097
0.00315479
0.00477494
0.00706255
0.00993705
0.0124443
-0.00103777
0.00110014
0.00245544
0.0031265
0.00337397
0.00357354
0.00405396
0.00502314
0.00661081
0.00891564
0.0123059
0.0154209
-0.0517727
-0.0516023
-0.0513959
-0.0511673
-0.0509199
-0.0505606
-0.050024
-0.0493227
-0.0484602
-0.0474683
-0.0463962
-0.0452956
-0.0485016
-0.0484348
-0.0485191
-0.0486722
-0.0486829
-0.048487
-0.0481205
-0.0473486
-0.0462418
-0.0448959
-0.0434333
-0.0419971
-0.0468729
-0.0469785
-0.0473846
-0.0478513
-0.0481204
-0.0480281
-0.047443
-0.0464875
-0.0451482
-0.0435031
-0.0416877
-0.039865
-0.0442741
-0.0445601
-0.0451615
-0.0457144
-0.0460067
-0.0459357
-0.0454129
-0.0444441
-0.0430264
-0.0412083
-0.0390851
-0.0367617
-0.0413437
-0.0416064
-0.0421375
-0.0426214
-0.0428981
-0.0428376
-0.0423422
-0.0413758
-0.0398977
-0.0379209
-0.0354912
-0.0326932
-0.0379717
-0.0379464
-0.0382024
-0.0385249
-0.0387583
-0.0387147
-0.0382589
-0.0373344
-0.0357661
-0.0335288
-0.0307454
-0.0275411
-0.0344272
-0.0338351
-0.0337156
-0.0338926
-0.0341242
-0.0340546
-0.0334684
-0.0322642
-0.0304796
-0.0280391
-0.0249942
-0.0215269
-0.0309708
-0.0296708
-0.0293247
-0.029651
-0.0301381
-0.0300757
-0.0291263
-0.0273696
-0.0249928
-0.0221115
-0.0187529
-0.015511
-0.0275635
-0.0256512
-0.0254035
-0.0262729
-0.0272846
-0.0273161
-0.0260171
-0.0236445
-0.0205798
-0.0171953
-0.0137464
-0.0105873
-0.0237496
-0.021524
-0.0216042
-0.0231772
-0.0248637
-0.025209
-0.0238825
-0.0211697
-0.017698
-0.0139881
-0.0103718
-0.00712405
-0.0192613
-0.0169167
-0.0174955
-0.0199517
-0.0224526
-0.0233328
-0.0221776
-0.0194033
-0.0157983
-0.0120247
-0.00839797
-0.00509924
-0.0143978
-0.0121919
-0.0132495
-0.0166686
-0.0199685
-0.0214446
-0.0206516
-0.0180473
-0.0145282
-0.0108488
-0.00730172
-0.0040074
-0.0442318
-0.043264
-0.042411
-0.0417135
-0.041242
-0.0409878
-0.0408808
-0.0407642
-0.0404723
-0.0399802
-0.0394047
-0.0388991
-0.0407161
-0.039638
-0.0387823
-0.0382412
-0.0381117
-0.0383166
-0.0386849
-0.0389005
-0.0386817
-0.0379758
-0.0369624
-0.0360959
-0.0381351
-0.0365381
-0.0352294
-0.0344461
-0.0342296
-0.0344917
-0.0350509
-0.035495
-0.0354042
-0.0346441
-0.0336276
-0.0328876
-0.0343664
-0.0321477
-0.0304391
-0.0293997
-0.0289423
-0.0290301
-0.0294121
-0.0297886
-0.029841
-0.0295385
-0.0291948
-0.0290406
-0.029819
-0.0273428
-0.0255692
-0.0244839
-0.0239456
-0.0238002
-0.023869
-0.0239698
-0.023951
-0.0239314
-0.0243645
-0.0250055
-0.0244481
-0.0220295
-0.0204572
-0.0195584
-0.0190842
-0.0188416
-0.0187201
-0.0186257
-0.0184952
-0.0183209
-0.018799
-0.0205193
-0.0184653
-0.0162629
-0.0149927
-0.0143827
-0.0141097
-0.013926
-0.0137417
-0.0133821
-0.0130971
-0.0128736
-0.0130617
-0.0152074
-0.0126908
-0.0107129
-0.00970671
-0.00936213
-0.00925424
-0.00907735
-0.00868265
-0.00827852
-0.00775044
-0.00730667
-0.00720957
-0.00881955
-0.00798327
-0.00616801
-0.00523137
-0.00497162
-0.00496249
-0.0048324
-0.00441079
-0.00371877
-0.00275706
-0.00172756
-0.000919869
-0.00143767
-0.00450617
-0.00274302
-0.00184918
-0.00155664
-0.00147575
-0.00129186
-0.000795543
0.000109034
0.00145481
0.00315309
0.00508957
0.00619119
-0.00235808
-0.000419638
0.000653232
0.00106152
0.00118921
0.00141394
0.00198016
0.00301869
0.00464647
0.0069215
0.00981793
0.0123282
-0.00118358
0.000927336
0.00226462
0.0029312
0.00318626
0.00340047
0.00389716
0.00488039
0.00647788
0.00878809
0.0121935
0.0153153
-0.0063126
-0.00737185
-0.00965993
-0.0140867
-0.0179784
-0.0198144
-0.019274
-0.0168619
-0.013546
-0.0100611
-0.00663009
-0.00332385
-0.00287834
-0.00673862
-0.00936306
-0.0131327
-0.0166409
-0.0182776
-0.0176851
-0.0154952
-0.0125901
-0.00947864
-0.00626778
-0.00301532
-0.00144265
-0.00609271
-0.00901497
-0.011997
-0.014753
-0.0161013
-0.0157195
-0.0140228
-0.0116508
-0.00895782
-0.00596101
-0.00268039
-0.000908302
-0.0049186
-0.00773709
-0.0102554
-0.0125793
-0.0139441
-0.0139208
-0.012738
-0.0108407
-0.00853938
-0.00575033
-0.00226818
-0.000404987
0.00183061
0.00337196
0.00426718
0.00467701
0.00490666
0.00526821
0.00598772
0.00717085
0.00865837
0.0099008
0.00727634
-0.000105126
0.00209784
0.00375732
0.00481219
0.00534047
0.00562282
0.00589203
0.00632776
0.0069521
0.00751776
0.00719829
0.00482709
0.00014513
0.00203725
0.00381419
0.00493714
0.00546796
0.00577327
0.0060061
0.00625714
0.00648605
0.00650602
0.00574544
0.00390317
0.000541049
0.0017132
0.0037433
0.00492239
0.00533267
0.00553652
0.00571333
0.00585544
0.0058864
0.00564688
0.0047582
0.0029616
-0.00635587
-0.00743253
-0.00974635
-0.014188
-0.0180615
-0.0198633
-0.019294
-0.0168772
-0.0135815
-0.0101275
-0.0067297
-0.00345718
-0.00285819
-0.00675733
-0.0094256
-0.0132192
-0.0167182
-0.0183319
-0.0177158
-0.0155276
-0.0126436
-0.00956157
-0.00638372
-0.00316716
-0.00139963
-0.00609066
-0.00905895
-0.0120671
-0.0148221
-0.0161511
-0.0157617
-0.0140721
-0.0117199
-0.00905278
-0.00608729
-0.00284231
-0.00087926
-0.00491295
-0.00777587
-0.0103221
-0.0126503
-0.0140046
-0.0139757
-0.0127994
-0.0109194
-0.00864156
-0.00588397
-0.00243304
-0.000567852
0.00164723
0.00317673
0.00407086
0.00448744
0.00472951
0.00510553
0.00583855
0.0070327
0.00853128
0.00978371
0.00717341
-0.000290107
0.00189961
0.00355697
0.0046159
0.0051501
0.00544235
0.0057238
0.00617198
0.00680714
0.00738336
0.00707074
0.00470139
-5.55518e-05
0.00182312
0.00361081
0.00474223
0.00527749
0.00558972
0.00583343
0.00609541
0.0063343
0.00636276
0.00560679
0.00376434
0.00033208
0.00149938
0.00354747
0.00473171
0.00514268
0.00535192
0.00553625
0.00568786
0.00572765
0.00549589
0.004614
0.0028271
)
;

boundaryField
{
    rotor
    {
        type            zeroGradient;
    }
    stator
    {
        type            zeroGradient;
    }
    AMI1
    {
        type            cyclicAMI;
        value           nonuniform List<scalar> 
48
(
-0.000813473
-0.00441714
-0.00714808
-0.00957638
-0.0117319
-0.0130577
-0.0131092
-0.0120994
-0.0103872
-0.00823202
-0.00559604
-0.00244838
0.00027222
0.00166563
0.00358774
0.00469378
0.00515638
0.00539647
0.00555831
0.00565235
0.00560737
0.00527865
0.00434957
0.00260509
-0.000784928
-0.00441348
-0.00718352
-0.00963847
-0.0118009
-0.0131179
-0.0131664
-0.0121636
-0.0104679
-0.00833545
-0.00572956
-0.00261421
5.11468e-05
0.00145714
0.00339393
0.00450323
0.00496688
0.00521211
0.00538094
0.00548387
0.00544742
0.00512673
0.00420566
0.00247308
)
;
    }
    AMI2
    {
        type            cyclicAMI;
        value           nonuniform 0();
    }
    front
    {
        type            empty;
    }
    back
    {
        type            empty;
    }
    procBoundary3to2
    {
        type            processor;
        value           nonuniform List<scalar> 8(0.00724739 0.00477237 0.00383115 0.00289715 -0.00641261 -0.00296552 -0.00151749 -0.000986669);
    }
}


// ************************************************************************* //
