/*--------------------------------*- C++ -*----------------------------------*\
| =========                 |                                                 |
| \\      /  F ield         | OpenFOAM: The Open Source CFD Toolbox           |
|  \\    /   O peration     | Version:  v1806                                 |
|   \\  /    A nd           | Web:      www.OpenFOAM.com                      |
|    \\/     M anipulation  |                                                 |
\*---------------------------------------------------------------------------*/
FoamFile
{
    version     2.0;
    format      ascii;
    class       volVectorField;
    location    "1";
    object      U;
}
// * * * * * * * * * * * * * * * * * * * * * * * * * * * * * * * * * * * * * //

dimensions      [0 1 -1 0 0 0 0];


internalField   nonuniform List<vector> 
768
(
(0.0182397 0.134198 0)
(0.0285318 0.132615 -3.99364e-20)
(0.0330823 0.129699 0)
(0.0373167 0.123026 0)
(0.0431407 0.115622 -1.49097e-19)
(0.0505463 0.109097 -1.50641e-19)
(0.0595505 0.103733 0)
(0.0692571 0.0995914 0)
(0.0793591 0.0966986 8.60974e-19)
(0.0893475 0.0947431 -7.27907e-19)
(0.0983994 0.0931534 -5.60915e-19)
(0.105357 0.0911586 6.96728e-19)
(0.00423728 0.149394 -6.64714e-20)
(0.00192235 0.149336 2.01299e-19)
(0.00312824 0.144419 -1.31638e-19)
(0.0100949 0.138346 1.28938e-19)
(0.0216303 0.132697 2.61484e-19)
(0.034991 0.126822 0)
(0.0483704 0.121194 7.66756e-19)
(0.0619853 0.11639 -5.0903e-19)
(0.0755379 0.112358 -2.53377e-19)
(0.0882407 0.109507 0)
(0.0989536 0.108526 2.32879e-19)
(0.106673 0.109741 0)
(0.0107551 0.160511 2.85708e-20)
(0.00529756 0.161086 0)
(0.00809336 0.158251 0)
(0.0200401 0.155462 -2.38393e-19)
(0.0366766 0.152728 2.33966e-19)
(0.0545205 0.149287 -4.79222e-19)
(0.0716948 0.144659 2.40747e-19)
(0.0871537 0.138248 -4.60647e-19)
(0.100919 0.131047 1.48065e-20)
(0.11321 0.124324 6.47172e-19)
(0.123997 0.119506 -2.07763e-19)
(0.134633 0.117441 0)
(0.00400789 0.178353 -2.64073e-20)
(0.000660075 0.182902 4.94818e-20)
(0.0135946 0.185417 9.96722e-20)
(0.0335359 0.189128 -1.06166e-19)
(0.0538229 0.191163 -3.06125e-19)
(0.0723248 0.189665 4.08383e-19)
(0.0893346 0.184154 -2.10347e-19)
(0.105142 0.175197 1.89097e-19)
(0.119847 0.163791 0)
(0.133517 0.151629 -1.84691e-19)
(0.147255 0.140672 0)
(0.16453 0.131335 -2.92975e-19)
(0.00665577 0.196131 -6.52735e-20)
(0.0139838 0.207268 4.01221e-20)
(0.0350599 0.217184 -1.71434e-19)
(0.0574437 0.226961 -1.70498e-19)
(0.0771437 0.232773 1.38426e-20)
(0.0940001 0.233055 -5.90472e-21)
(0.108847 0.227416 1.59863e-19)
(0.122654 0.216443 1.49204e-19)
(0.13627 0.201355 -3.17791e-19)
(0.150821 0.183605 0)
(0.168041 0.164319 2.56813e-19)
(0.189533 0.144756 -2.01892e-19)
(0.0174745 0.213489 5.42244e-20)
(0.0362703 0.233836 -3.75034e-20)
(0.0621356 0.251133 7.58442e-21)
(0.085541 0.267175 0)
(0.103681 0.27818 1.38505e-19)
(0.117324 0.282066 -1.37982e-19)
(0.128622 0.277641 0)
(0.13963 0.264752 2.39023e-19)
(0.151704 0.244271 -2.41593e-19)
(0.165959 0.218619 2.46636e-19)
(0.18331 0.189996 -4.4451e-19)
(0.202824 0.1598 4.0773e-19)
(0.0359013 0.228751 -3.16702e-20)
(0.0644536 0.257598 5.62842e-20)
(0.0940977 0.279975 3.49488e-21)
(0.117282 0.301012 -9.66278e-20)
(0.131811 0.316731 0)
(0.139887 0.324846 -2.03593e-19)
(0.145583 0.323812 3.98813e-19)
(0.152369 0.312739 -2.21227e-19)
(0.161705 0.290959 1.9398e-19)
(0.173581 0.258868 1.61154e-19)
(0.187466 0.21979 3.00394e-19)
(0.202049 0.179451 -3.23732e-19)
(0.0562836 0.240691 -2.41048e-20)
(0.0918241 0.272791 2.2829e-20)
(0.122573 0.293356 7.83647e-20)
(0.142238 0.312998 1.71864e-19)
(0.149564 0.327671 -8.32385e-20)
(0.149467 0.336094 -1.68325e-19)
(0.148459 0.337717 -6.15585e-21)
(0.150877 0.332142 -3.3048e-19)
(0.157931 0.317841 4.1767e-21)
(0.168347 0.291906 -5.18552e-19)
(0.179473 0.253089 -8.88514e-21)
(0.189157 0.205401 1.75901e-19)
(0.0723167 0.248261 6.88483e-22)
(0.111818 0.276435 1.71451e-20)
(0.140099 0.287377 -1.08636e-19)
(0.153229 0.298522 0)
(0.151262 0.305675 7.47658e-20)
(0.142192 0.30929 7.41541e-20)
(0.134936 0.310632 5.30384e-21)
(0.133568 0.309185 0)
(0.13867 0.302955 2.03818e-20)
(0.148681 0.289722 1.11051e-19)
(0.160342 0.266283 -1.40186e-19)
(0.16952 0.230603 -5.51046e-21)
(0.0782451 0.252061 3.29222e-20)
(0.118727 0.272824 -2.90312e-20)
(0.143542 0.268017 8.79292e-20)
(0.151053 0.267437 5.56383e-20)
(0.141195 0.266354 -6.96937e-20)
(0.125217 0.266952 -2.1277e-19)
(0.113633 0.269331 1.47973e-19)
(0.109152 0.269601 1.18638e-19)
(0.111665 0.265584 2.012e-19)
(0.119499 0.25716 -2.40049e-19)
(0.130289 0.244045 1.91964e-20)
(0.14104 0.22459 1.68835e-20)
(0.0713055 0.257391 -1.42988e-20)
(0.11539 0.261329 0)
(0.133896 0.244452 3.80641e-20)
(0.137741 0.230612 -1.07603e-19)
(0.125738 0.222659 1.09377e-19)
(0.107498 0.221712 1.31283e-19)
(0.0923742 0.225095 1.14607e-19)
(0.0848572 0.227889 -2.17695e-19)
(0.0852855 0.227075 0)
(0.0909736 0.221768 1.60689e-20)
(0.0989492 0.211933 0)
(0.107481 0.197656 0)
(0.0332848 0.283227 0)
(0.0930551 0.263411 0)
(0.115942 0.229232 -3.57834e-20)
(0.118859 0.199596 7.0656e-20)
(0.10697 0.182236 -9.85933e-20)
(0.0876795 0.176154 -2.00222e-19)
(0.0695543 0.177315 1.01474e-19)
(0.0596391 0.181101 0)
(0.0587609 0.183659 0)
(0.0633266 0.183138 1.02772e-19)
(0.0698859 0.179011 8.67089e-20)
(0.0767397 0.170528 -2.46367e-20)
(0.109356 0.0883114 6.56826e-19)
(0.111019 0.0845392 -9.22465e-19)
(0.112458 0.0785431 9.5606e-21)
(0.113487 0.0699614 2.69645e-19)
(0.112782 0.0595447 -2.43966e-19)
(0.110228 0.0488586 1.20941e-19)
(0.107176 0.0381744 -3.55238e-19)
(0.105194 0.0269852 1.20181e-19)
(0.105953 0.0154902 -1.1388e-19)
(0.111217 0.00412604 5.63505e-20)
(0.12035 -0.00730601 -8.57535e-20)
(0.127415 -0.0136438 7.20209e-20)
(0.113063 0.11196 -2.31263e-19)
(0.12296 0.110837 -2.03937e-19)
(0.13484 0.107044 0)
(0.142494 0.104437 3.97996e-19)
(0.145762 0.100174 -4.79528e-19)
(0.14681 0.092101 1.86366e-19)
(0.146664 0.0787767 4.07997e-19)
(0.145369 0.0598552 4.22401e-19)
(0.143104 0.037105 -1.05402e-19)
(0.140537 0.0137657 -3.60399e-21)
(0.142699 -0.00603616 2.58096e-20)
(0.143595 -0.0106091 -1.26467e-20)
(0.150095 0.116282 1.70384e-19)
(0.169673 0.114924 1.69958e-20)
(0.185103 0.116082 -3.11115e-19)
(0.194937 0.119228 1.47115e-19)
(0.201781 0.120866 4.54072e-19)
(0.206743 0.117052 -4.47463e-19)
(0.208249 0.105247 -1.37788e-19)
(0.205366 0.0842518 -2.36693e-19)
(0.197025 0.0549726 1.62301e-19)
(0.183715 0.0228359 -1.24952e-19)
(0.171246 -0.0014934 4.41987e-21)
(0.160838 -0.00655629 4.104e-20)
(0.187713 0.123788 1.23097e-19)
(0.210055 0.121263 -1.26597e-19)
(0.225895 0.124919 0)
(0.237769 0.131335 0)
(0.247673 0.136517 -3.21567e-19)
(0.255546 0.138411 -9.96058e-20)
(0.259702 0.135061 3.29666e-19)
(0.2574 0.122995 1.06701e-20)
(0.245617 0.099516 -1.63609e-19)
(0.223281 0.0648215 0)
(0.195086 0.0265418 6.61529e-20)
(0.174043 0.00362427 -1.78006e-20)
(0.213164 0.128236 3.01174e-20)
(0.231781 0.119377 0)
(0.243561 0.118142 0)
(0.252939 0.121584 0)
(0.262039 0.127728 9.47095e-20)
(0.270391 0.135013 9.31269e-20)
(0.27721 0.140749 7.21244e-20)
(0.280889 0.142634 9.85644e-21)
(0.277198 0.136499 1.93489e-19)
(0.261812 0.116607 -3.60474e-20)
(0.233044 0.0764216 2.82987e-21)
(0.195563 0.018165 -5.07564e-20)
(0.221045 0.132873 3.56523e-19)
(0.232268 0.114771 2.81855e-20)
(0.236573 0.105506 0)
(0.238576 0.102322 0)
(0.240587 0.103511 -1.34948e-19)
(0.244483 0.108802 1.36433e-19)
(0.251853 0.117636 -7.39248e-20)
(0.260902 0.127765 -5.29537e-20)
(0.269082 0.137654 -6.76342e-20)
(0.27121 0.141637 3.29773e-20)
(0.262894 0.123253 1.73035e-20)
(0.23699 0.0532524 2.19781e-21)
(0.213239 0.142476 -2.81973e-20)
(0.217176 0.114787 -9.40111e-20)
(0.214837 0.0973821 2.28797e-20)
(0.210961 0.0880953 1.00299e-19)
(0.207921 0.084595 -1.85628e-19)
(0.207169 0.0852463 0)
(0.209714 0.0888887 -4.94939e-20)
(0.218579 0.0961985 1.03497e-19)
(0.231386 0.108291 0)
(0.245304 0.126109 -3.15027e-20)
(0.25913 0.141117 0)
(0.268848 0.0992114 2.32734e-21)
(0.195408 0.159343 -2.54847e-20)
(0.194511 0.122817 -5.52228e-20)
(0.188533 0.0969698 1.38422e-19)
(0.181924 0.0811883 -1.1708e-19)
(0.177471 0.0733864 1.31217e-19)
(0.176567 0.0710539 0)
(0.179542 0.0720878 -1.46512e-20)
(0.186922 0.0756796 -2.6844e-20)
(0.198585 0.0821779 0)
(0.213922 0.0935619 4.27403e-20)
(0.2324 0.119063 -1.08071e-20)
(0.274511 0.119489 6.31932e-21)
(0.173572 0.18524 -1.0898e-19)
(0.171429 0.140364 9.398e-20)
(0.164593 0.104332 0)
(0.156947 0.0799862 0)
(0.152092 0.066143 0)
(0.151874 0.0597556 0)
(0.15648 0.057652 2.29168e-20)
(0.165301 0.0584347 -9.87625e-21)
(0.17831 0.0625404 -1.62663e-21)
(0.196301 0.0713708 -1.78108e-21)
(0.21574 0.0878749 -1.32453e-21)
(0.264354 0.105044 -3.51151e-21)
(0.14829 0.196673 -5.18156e-21)
(0.14969 0.160948 0)
(0.145397 0.122509 -4.64476e-21)
(0.138394 0.0885054 0)
(0.132785 0.0641683 1.41414e-22)
(0.131695 0.0501828 0)
(0.136414 0.0438387 9.14503e-21)
(0.146657 0.0418695 7.7586e-23)
(0.16141 0.0426368 1.50112e-21)
(0.181866 0.0471833 0)
(0.207166 0.0595323 2.93874e-21)
(0.253672 0.0720686 1.67778e-21)
(0.115574 0.179185 4.28307e-20)
(0.121742 0.156796 6.10888e-21)
(0.124365 0.130654 4.1649e-21)
(0.123096 0.101702 -2.77317e-20)
(0.119642 0.0729741 6.26855e-21)
(0.11729 0.0491997 0)
(0.119396 0.0335398 1.18756e-20)
(0.127873 0.0254307 1.43803e-20)
(0.143072 0.022225 2.77236e-20)
(0.165557 0.0216264 0)
(0.193089 0.0253682 0)
(0.242322 0.025921 2.05431e-24)
(0.083451 0.157039 -2.0699e-20)
(0.0899971 0.139338 1.27422e-20)
(0.0962174 0.119468 -2.56825e-20)
(0.101564 0.098749 1.93639e-20)
(0.105123 0.0769046 5.14124e-20)
(0.106593 0.0539229 2.24745e-20)
(0.107702 0.0322419 -2.43246e-20)
(0.111884 0.0152882 -3.41463e-20)
(0.122157 0.00398685 -2.50227e-20)
(0.141934 -0.00412248 1.9659e-20)
(0.170736 -0.0137756 -2.58014e-20)
(0.233074 -0.0491731 -2.28968e-24)
(0.132546 -0.0180136 3.80207e-20)
(0.132725 -0.0293014 -1.59317e-19)
(0.129603 -0.0325499 1.58163e-19)
(0.122981 -0.036873 2.32059e-19)
(0.115391 -0.0428664 -1.5656e-19)
(0.108762 -0.0503753 0)
(0.103421 -0.0594445 5.9251e-19)
(0.0993836 -0.0692 -4.49022e-19)
(0.0966018 -0.0793556 0)
(0.0947418 -0.0893865 -4.26354e-19)
(0.0932183 -0.0984546 -1.33301e-19)
(0.0912606 -0.105382 0)
(0.148905 -0.00396595 1.57498e-20)
(0.149099 -0.00196982 1.33602e-19)
(0.14411 -0.0028089 -1.3164e-19)
(0.138114 -0.00990359 3.89587e-19)
(0.132466 -0.0216405 -2.63457e-19)
(0.126546 -0.0351145 0)
(0.120925 -0.0485571 -2.55685e-19)
(0.116168 -0.062248 3.80915e-19)
(0.112213 -0.0758565 0)
(0.109472 -0.0885845 -2.27941e-19)
(0.108634 -0.0992679 9.6355e-19)
(0.110016 -0.106931 -2.29363e-19)
(0.160391 -0.0104623 -2.96738e-20)
(0.161095 -0.00505366 -5.79592e-20)
(0.158222 -0.0077508 2.33311e-19)
(0.155425 -0.0198344 -3.52058e-19)
(0.152611 -0.0366345 -1.20068e-19)
(0.149085 -0.0545977 -2.36662e-19)
(0.144401 -0.0718342 -2.41872e-19)
(0.137979 -0.0873418 0)
(0.130838 -0.101173 4.43312e-19)
(0.124226 -0.113532 -2.28852e-19)
(0.119575 -0.124378 -1.05911e-20)
(0.117673 -0.13522 -3.81343e-19)
(0.178442 -0.00373928 1.16543e-20)
(0.182931 -0.000377245 3.08989e-21)
(0.185417 -0.0133474 9.99704e-20)
(0.189042 -0.0333175 1.08152e-19)
(0.190902 -0.0536389 -6.26563e-21)
(0.189224 -0.0722283 -1.99079e-19)
(0.18358 -0.0893774 -1.88643e-19)
(0.174584 -0.105323 2.07398e-19)
(0.163217 -0.120152 -1.82365e-19)
(0.15118 -0.133954 -1.84949e-19)
(0.140386 -0.147912 -5.01238e-19)
(0.131177 -0.165622 -1.11438e-19)
(0.196187 -0.00648024 -2.28665e-20)
(0.207272 -0.0136717 8.74646e-20)
(0.21712 -0.0345981 8.43157e-20)
(0.226746 -0.0568943 9.00089e-20)
(0.232345 -0.0766275 -1.74632e-19)
(0.232388 -0.0936238 -8.04728e-21)
(0.226558 -0.10868 1.70895e-19)
(0.215495 -0.122721 1.67801e-19)
(0.20043 -0.136567 1.62777e-19)
(0.182759 -0.151385 -2.87722e-19)
(0.163583 -0.168991 2.84671e-19)
(0.144184 -0.190845 3.48816e-20)
(0.213524 -0.0172585 -7.20455e-20)
(0.233802 -0.0358108 -1.74177e-21)
(0.251035 -0.0614654 1.38452e-19)
(0.266938 -0.0847347 -1.3339e-19)
(0.277722 -0.102897 0)
(0.281319 -0.116708 -1.38798e-19)
(0.276584 -0.128275 0)
(0.263473 -0.139605 0)
(0.242935 -0.15203 0)
(0.217314 -0.166668 0)
(0.188788 -0.184421 2.08184e-19)
(0.158843 -0.204053 7.09796e-21)
(0.228779 -0.0356789 1.61992e-20)
(0.257607 -0.0639734 2.8572e-20)
(0.280022 -0.0933735 -1.00023e-19)
(0.301039 -0.116402 -9.71693e-20)
(0.31665 -0.130954 -1.02736e-19)
(0.324546 -0.139236 1.03407e-19)
(0.323195 -0.145265 0)
(0.311704 -0.152413 0)
(0.289439 -0.162068 0)
(0.257053 -0.174199 0)
(0.218143 -0.188337 3.02028e-19)
(0.17817 -0.203057 -1.67539e-19)
(0.240734 -0.0560951 -1.30653e-20)
(0.272892 -0.0914178 -4.18857e-20)
(0.293616 -0.121932 1.19694e-20)
(0.313382 -0.14145 1.06848e-20)
(0.328128 -0.148831 0)
(0.336532 -0.148996 -1.63935e-19)
(0.337997 -0.14836 0)
(0.332081 -0.151171 1.49562e-19)
(0.31722 -0.15855 -2.80528e-19)
(0.29061 -0.169122 -1.15605e-19)
(0.251189 -0.180163 -2.41375e-19)
(0.203446 -0.189761 8.26132e-20)
(0.248319 -0.0721961 0)
(0.276589 -0.111536 1.08335e-19)
(0.287742 -0.139608 3.97759e-20)
(0.299051 -0.152609 7.54249e-20)
(0.306324 -0.150722 0)
(0.310016 -0.141933 3.1603e-19)
(0.311357 -0.135032 -3.01651e-19)
(0.309773 -0.134015 1.41461e-19)
(0.303249 -0.139419 1.28468e-19)
(0.289481 -0.149617 2.3069e-20)
(0.265267 -0.161246 7.08106e-20)
(0.228985 -0.170066 -2.26945e-20)
(0.252139 -0.0781804 -7.78874e-22)
(0.272988 -0.118566 -1.66461e-20)
(0.268418 -0.143206 0)
(0.267996 -0.150578 6.46994e-20)
(0.267026 -0.140782 -1.99219e-19)
(0.267656 -0.125053 0)
(0.269956 -0.113757 -1.3586e-19)
(0.270076 -0.109561 1.30435e-20)
(0.26588 -0.112312 1.92985e-19)
(0.257243 -0.120306 -5.99065e-20)
(0.243813 -0.131124 1.58033e-19)
(0.223937 -0.141669 -1.50869e-19)
(0.25744 -0.0713661 -1.43848e-20)
(0.261531 -0.115387 -1.84963e-20)
(0.244853 -0.13373 0)
(0.231178 -0.137426 0)
(0.223343 -0.125417 6.33149e-20)
(0.222424 -0.107326 3.06959e-19)
(0.225731 -0.092449 -2.43692e-19)
(0.228364 -0.0852029 2.1301e-19)
(0.227336 -0.0858232 -8.22282e-20)
(0.221791 -0.0915865 -3.58881e-20)
(0.211721 -0.0995358 -4.30524e-20)
(0.197243 -0.10796 4.53516e-20)
(0.283369 -0.0334022 -2.28778e-24)
(0.263669 -0.0931658 -6.22282e-21)
(0.229625 -0.115877 2.69894e-20)
(0.200119 -0.118652 0)
(0.182857 -0.106712 0)
(0.176817 -0.0875097 -1.07817e-19)
(0.177941 -0.0696179 1.00041e-20)
(0.181605 -0.0599661 -1.71526e-19)
(0.183981 -0.0592485 1.12037e-19)
(0.18326 -0.063852 4.59976e-20)
(0.178929 -0.0703611 0)
(0.170245 -0.0771008 -4.04379e-20)
(0.0884494 -0.109322 2.59378e-19)
(0.0846994 -0.111005 2.69651e-19)
(0.07868 -0.112561 -1.17093e-18)
(0.070014 -0.113735 6.43681e-19)
(0.0595504 -0.113113 0)
(0.0489273 -0.110582 1.21436e-19)
(0.0383277 -0.107509 1.15862e-19)
(0.0271823 -0.105479 1.19482e-19)
(0.015679 -0.106164 -2.92947e-19)
(0.00427961 -0.111365 0)
(-0.00722194 -0.120434 2.82231e-20)
(-0.013618 -0.127433 1.44839e-20)
(0.112299 -0.113459 2.1889e-19)
(0.111037 -0.123768 -4.01525e-19)
(0.107344 -0.135839 4.13692e-19)
(0.104882 -0.143417 0)
(0.100603 -0.146661 -1.87145e-19)
(0.0924896 -0.1477 1.89361e-19)
(0.0791253 -0.14751 -1.05456e-19)
(0.0601731 -0.146135 1.08848e-19)
(0.0373711 -0.143717 0)
(0.0140251 -0.140948 5.29118e-20)
(-0.00580048 -0.14289 -1.7718e-19)
(-0.0104217 -0.143638 6.11182e-20)
(0.116547 -0.151181 0)
(0.1153 -0.170983 1.73389e-19)
(0.116614 -0.186387 -3.1074e-19)
(0.119803 -0.196232 3.07427e-19)
(0.121422 -0.20314 1.56588e-19)
(0.117635 -0.208108 2.75994e-19)
(0.105917 -0.209543 -1.58917e-19)
(0.0850247 -0.206486 1.54966e-19)
(0.0557718 -0.197836 -1.62079e-19)
(0.023516 -0.18416 -1.1498e-19)
(-0.000977512 -0.171311 8.16798e-20)
(-0.00627875 -0.160811 2.09152e-20)
(0.123815 -0.189162 5.50415e-19)
(0.121552 -0.211429 -2.46222e-19)
(0.125334 -0.227131 2.41774e-19)
(0.131759 -0.238977 0)
(0.136978 -0.248842 0)
(0.138983 -0.256624 -1.17736e-19)
(0.135832 -0.260683 -9.71668e-21)
(0.124058 -0.258282 9.90097e-20)
(0.100905 -0.2464 -1.12534e-19)
(0.0663841 -0.22394 6.48736e-20)
(0.0277743 -0.195441 -5.06938e-21)
(0.00394773 -0.174023 8.86187e-21)
(0.127979 -0.21451 -2.35976e-19)
(0.119425 -0.2328 1.90188e-19)
(0.118295 -0.244293 -1.88746e-19)
(0.121721 -0.253465 0)
(0.127845 -0.26234 0)
(0.135167 -0.270496 7.54296e-20)
(0.141045 -0.277202 0)
(0.143238 -0.280894 -9.80352e-21)
(0.13759 -0.277352 -7.91282e-20)
(0.118203 -0.262219 0)
(0.0780403 -0.233671 -4.8067e-21)
(0.0186892 -0.195979 -6.26609e-24)
(0.13232 -0.222057 0)
(0.114599 -0.232803 1.42462e-20)
(0.105515 -0.236732 -1.47844e-19)
(0.102365 -0.238437 1.36353e-19)
(0.103509 -0.240148 -3.94111e-19)
(0.108706 -0.243775 6.01446e-20)
(0.117494 -0.250968 5.67222e-20)
(0.127707 -0.259982 5.33837e-20)
(0.137892 -0.268293 0)
(0.14246 -0.270749 0)
(0.12474 -0.262976 -1.73427e-20)
(0.0545087 -0.237632 -8.01334e-21)
(0.141624 -0.213888 2.53705e-19)
(0.114429 -0.217329 1.19734e-19)
(0.0973637 -0.214641 -1.09348e-19)
(0.0882534 -0.210524 0)
(0.0848127 -0.207294 1.2029e-19)
(0.0854322 -0.206413 8.56393e-20)
(0.0890246 -0.208895 -1.42554e-19)
(0.0962198 -0.217643 -5.65766e-20)
(0.108223 -0.230396 0)
(0.126156 -0.244379 2.0406e-20)
(0.141765 -0.258457 -3.02703e-20)
(0.100427 -0.269054 1.83771e-20)
(0.158079 -0.195752 -2.52677e-20)
(0.122184 -0.194431 0)
(0.096854 -0.188195 6.10467e-20)
(0.0814148 -0.181469 4.40213e-20)
(0.0737779 -0.176968 -9.02714e-22)
(0.0714675 -0.176059 -8.82587e-20)
(0.0724472 -0.179039 5.78043e-20)
(0.0759753 -0.186421 -4.65332e-20)
(0.0824403 -0.198069 -4.06989e-20)
(0.0937338 -0.213407 2.36347e-20)
(0.119162 -0.231715 0)
(0.12016 -0.274319 1.91648e-21)
(0.183542 -0.173734 -5.16156e-20)
(0.139208 -0.171235 4.34549e-20)
(0.103849 -0.1642 0)
(0.0800448 -0.156529 -1.28363e-20)
(0.0665212 -0.151748 -5.63009e-20)
(0.0602411 -0.15162 -2.07432e-20)
(0.0581053 -0.156283 6.48548e-20)
(0.0588116 -0.165118 2.81088e-20)
(0.0628516 -0.178112 1.53386e-20)
(0.0716763 -0.196117 1.99578e-21)
(0.0881789 -0.215537 8.43259e-22)
(0.105352 -0.264143 -2.65422e-21)
(0.195641 -0.148545 -2.04278e-20)
(0.159821 -0.149558 3.7831e-20)
(0.121657 -0.145014 6.66115e-21)
(0.0881466 -0.137969 1.08519e-20)
(0.0642679 -0.132467 -7.9711e-21)
(0.0505636 -0.131534 -1.60175e-20)
(0.0443158 -0.136383 -3.02595e-21)
(0.0423231 -0.146689 -9.64037e-21)
(0.043029 -0.161438 0)
(0.0475098 -0.181865 -1.87127e-21)
(0.0598232 -0.207098 0)
(0.072352 -0.25359 -6.33963e-21)
(0.178621 -0.115868 -6.86609e-21)
(0.156137 -0.121779 -8.26115e-21)
(0.130008 -0.124149 -6.54777e-21)
(0.101221 -0.122742 -2.19379e-20)
(0.072783 -0.119306 6.33074e-21)
(0.0493123 -0.117083 5.29349e-21)
(0.0338621 -0.119344 -1.12187e-20)
(0.0258444 -0.127938 0)
(0.0226448 -0.143189 0)
(0.0220238 -0.165669 0)
(0.0257544 -0.193111 7.1497e-21)
(0.0261797 -0.242276 8.09158e-21)
(0.156601 -0.0836582 8.31627e-21)
(0.13883 -0.090037 3.71953e-21)
(0.118981 -0.0961003 7.04303e-21)
(0.0983495 -0.101327 1.76334e-20)
(0.0766402 -0.104836 -1.47014e-20)
(0.0538452 -0.106348 4.02475e-21)
(0.0323679 -0.107566 3.30252e-20)
(0.0155719 -0.111866 2.3543e-20)
(0.00435647 -0.122222 0)
(-0.00370772 -0.14203 0)
(-0.0133589 -0.17083 2.55533e-20)
(-0.048942 -0.233161 -1.54175e-21)
(0.0593318 0.146103 -2.38617e-21)
(0.0601615 0.175644 -9.02152e-21)
(0.0763115 0.178 3.4083e-20)
(0.0828841 0.158845 -8.9508e-20)
(0.0745963 0.139704 0)
(0.0576878 0.129396 8.90891e-20)
(0.0418178 0.128004 7.72081e-20)
(0.0335326 0.132324 -1.19135e-20)
(0.0328939 0.137761 -1.69402e-19)
(0.0364651 0.141424 1.13227e-19)
(0.0414269 0.142355 -8.949e-20)
(0.0469278 0.139797 0)
(0.0719398 0.0717177 6.17103e-21)
(0.0653709 0.0761231 5.16275e-21)
(0.0635608 0.0826582 -7.44329e-21)
(0.0585438 0.0801429 4.6998e-20)
(0.0467024 0.0733848 -3.31513e-20)
(0.0313031 0.070679 1.03608e-19)
(0.0186698 0.0752774 -6.89608e-20)
(0.012297 0.0844535 0)
(0.0114476 0.0939659 1.38975e-19)
(0.0133391 0.10149 -1.13529e-19)
(0.0159828 0.10635 0)
(0.0193723 0.108022 -2.09028e-20)
(0.0639392 0.0419971 -1.81387e-21)
(0.0610011 0.0296612 -1.5596e-20)
(0.0552003 0.0240471 6.37705e-21)
(0.0449107 0.0209817 -4.90232e-21)
(0.0304051 0.0206492 2.67735e-20)
(0.0153653 0.0254252 -8.37975e-20)
(0.00424374 0.0352713 1.61183e-19)
(-0.00144416 0.0475278 9.3731e-20)
(-0.00331118 0.0593327 1.14014e-19)
(-0.00370198 0.0691773 -3.55646e-20)
(-0.00391568 0.076264 0)
(-0.00338468 0.079793 2.53977e-21)
(0.0533882 0.0335496 -1.17166e-21)
(0.0511686 0.0183433 9.99824e-21)
(0.0448452 0.00750399 -2.29349e-20)
(0.0349215 0.00105106 -5.43687e-20)
(0.0220714 -0.000328498 1.86629e-20)
(0.00927359 0.00396849 0)
(-0.000802561 0.0130246 -1.43624e-19)
(-0.00725681 0.0245985 3.56131e-20)
(-0.0112841 0.0364775 2.61647e-20)
(-0.0144307 0.0474299 -5.48152e-20)
(-0.0173119 0.0561617 2.30268e-20)
(-0.019336 0.0598078 1.5807e-20)
(0.0532932 0.132697 5.78561e-21)
(0.060617 0.120656 -1.70034e-20)
(0.0683695 0.104675 1.29503e-20)
(0.0763479 0.0867722 -1.81668e-20)
(0.0844565 0.0689404 5.0339e-21)
(0.0917515 0.0512648 -5.53092e-20)
(0.096866 0.0324607 3.11875e-20)
(0.100221 0.0128974 1.10268e-20)
(0.104383 -0.00539186 -2.86229e-20)
(0.11335 -0.0223292 -3.40078e-20)
(0.124023 -0.0401605 9.44779e-21)
(0.139496 -0.0863819 -1.22231e-21)
(0.0249846 0.105655 1.39597e-22)
(0.0334386 0.0989138 3.67491e-21)
(0.0433708 0.0881642 1.08711e-20)
(0.0537391 0.0737354 0)
(0.0640345 0.0576439 0)
(0.0739824 0.0420793 0)
(0.0827298 0.0270594 1.19478e-20)
(0.0887399 0.0108909 -2.45835e-20)
(0.0913833 -0.00734542 6.49391e-20)
(0.0916234 -0.0273724 2.19747e-20)
(0.0903137 -0.0473272 6.20152e-21)
(0.0830636 -0.07666 -2.15646e-23)
(0.000726498 0.079554 -2.45299e-21)
(0.0102867 0.0763296 0)
(0.0224888 0.0704673 0)
(0.0351582 0.0603473 0)
(0.0471411 0.0468781 -2.01676e-20)
(0.0578575 0.0325196 -2.08019e-20)
(0.0672082 0.0189184 5.41638e-20)
(0.0746581 0.00576386 -1.11142e-20)
(0.0788157 -0.00853014 -4.62562e-20)
(0.0778687 -0.0251154 2.14548e-20)
(0.0723026 -0.0422656 -7.02118e-21)
(0.0593376 -0.0600218 -2.03786e-21)
(-0.0173082 0.0579669 5.7791e-21)
(-0.0070868 0.0555935 -1.4406e-20)
(0.00870676 0.0537802 0)
(0.0240531 0.0478246 -1.71209e-20)
(0.0368805 0.0375961 7.10185e-20)
(0.0470599 0.0251302 5.77454e-20)
(0.0549193 0.0123872 -7.88377e-20)
(0.0608323 0.000335071 0)
(0.0645988 -0.0112938 1.96827e-21)
(0.0647891 -0.0235491 -3.80686e-20)
(0.0602353 -0.036091 8.69272e-21)
(0.0491101 -0.0484572 -2.11733e-21)
(0.146162 -0.0597433 -2.39046e-21)
(0.175772 -0.0603969 5.79175e-21)
(0.178317 -0.076322 -4.06854e-21)
(0.159264 -0.0827372 0)
(0.140224 -0.0743823 0)
(0.129995 -0.0575554 0)
(0.128609 -0.0419098 0)
(0.132841 -0.0338441 1.04831e-20)
(0.138117 -0.0333121 -7.72808e-21)
(0.141604 -0.0368858 0)
(0.14237 -0.0417935 -5.28972e-20)
(0.139659 -0.0472043 2.65647e-20)
(0.0714471 -0.0723495 -1.04123e-21)
(0.0760516 -0.0655652 1.51705e-20)
(0.08277 -0.0636142 -1.77264e-20)
(0.080403 -0.0584707 4.73047e-20)
(0.0737967 -0.0465773 5.99495e-20)
(0.0712128 -0.0312636 0)
(0.0758507 -0.0187859 -6.37643e-20)
(0.0849473 -0.0125467 2.38298e-19)
(0.0943096 -0.0117538 -1.50784e-19)
(0.101679 -0.0136343 3.95408e-20)
(0.106405 -0.016229 7.78123e-20)
(0.107955 -0.0195389 -2.25549e-21)
(0.0414393 -0.0644181 1.98208e-21)
(0.0292215 -0.0613408 -7.92767e-21)
(0.0238322 -0.0553368 6.39274e-21)
(0.0210064 -0.0448872 -4.93644e-21)
(0.0208843 -0.0303147 -2.78943e-20)
(0.0258004 -0.0153289 -8.41043e-20)
(0.0356938 -0.0043115 3.67805e-21)
(0.0478947 0.00129629 7.07761e-21)
(0.0595955 0.00312805 4.48372e-20)
(0.0693317 0.00351936 -9.04108e-20)
(0.0763171 0.00376209 2.59265e-20)
(0.0797449 0.00329767 -3.84068e-20)
(0.0327662 -0.0537563 1.08897e-21)
(0.0176033 -0.0515025 -7.06731e-21)
(0.00695452 -0.0450411 1.45076e-20)
(0.000743376 -0.034945 -3.2216e-20)
(-0.000404213 -0.0219974 3.00966e-21)
(0.00406594 -0.00918657 -2.2172e-20)
(0.0132122 0.000834383 8.79914e-20)
(0.0248021 0.00722112 -8.05393e-20)
(0.0366508 0.011204 -6.87648e-20)
(0.0475458 0.0143411 2.36511e-20)
(0.0562116 0.0172516 -6.03441e-20)
(0.0597868 0.0193447 1.6851e-20)
(0.132417 -0.0534511 -1.42561e-21)
(0.120278 -0.060642 1.1399e-20)
(0.104276 -0.0682733 -9.70545e-21)
(0.0864234 -0.0761587 1.78856e-20)
(0.0686737 -0.0842126 -2.20149e-20)
(0.0511035 -0.0914994 0)
(0.032442 -0.0966635 -3.01922e-20)
(0.0130436 -0.100111 -1.07497e-20)
(-0.00510362 -0.104372 2.80603e-20)
(-0.0219483 -0.113383 0)
(-0.0397233 -0.124118 -2.21212e-20)
(-0.0859925 -0.139532 -8.33466e-21)
(0.105471 -0.0250566 -3.15145e-21)
(0.098631 -0.0334254 -1.30444e-20)
(0.0878409 -0.0432838 0)
(0.0734394 -0.053592 -5.10411e-20)
(0.0574045 -0.0638469 5.54941e-20)
(0.0419066 -0.0737731 0)
(0.0269697 -0.0825226 -1.16287e-20)
(0.0109203 -0.0885765 1.14683e-20)
(-0.00716589 -0.0913108 -2.62834e-20)
(-0.0270563 -0.0916369 6.74846e-21)
(-0.0469007 -0.0904361 -3.93449e-21)
(-0.0762072 -0.0832343 1.91111e-21)
(0.0793904 -0.000726437 2.07427e-21)
(0.0760853 -0.0102034 -9.45322e-22)
(0.0701688 -0.0223749 9.42256e-21)
(0.0600664 -0.0350181 5.10317e-20)
(0.0466488 -0.0469799 -1.79754e-20)
(0.032356 -0.0576842 -3.99976e-20)
(0.0188179 -0.0670262 0)
(0.00573397 -0.0744811 -5.3987e-20)
(-0.00845805 -0.0786872 1.11352e-20)
(-0.0249162 -0.077839 5.28142e-21)
(-0.0419379 -0.0724088 -5.19081e-21)
(-0.0596405 -0.0595964 -3.18473e-21)
(0.0578339 0.0173548 8.73547e-22)
(0.0553477 0.00716894 -1.07432e-20)
(0.0534801 -0.00860287 0)
(0.0475434 -0.0239403 -3.16348e-20)
(0.037365 -0.0367427 1.78519e-20)
(0.0249686 -0.046904 5.58389e-20)
(0.0122943 -0.0547556 9.68453e-21)
(0.000303246 -0.0606667 3.06937e-20)
(-0.0112617 -0.0644464 -1.84527e-20)
(-0.0234349 -0.0646932 1.29486e-20)
(-0.0358766 -0.060257 2.64274e-21)
(-0.0481683 -0.0493106 2.85369e-21)
)
;

boundaryField
{
    rotor
    {
        type            movingWallVelocity;
        value           nonuniform List<vector> 
96
(
(0.00410705 0.125514 1.99493e-16)
(0.0123073 0.124977 1.99492e-16)
(0.0204548 0.123904 3.98986e-16)
(0.0285147 0.122301 0)
(0.0364525 0.120174 0)
(0.0442342 0.117533 -1.99497e-16)
(0.0518265 0.114388 -1.99493e-16)
(0.0591969 0.110754 -3.98986e-16)
(0.0663138 0.106645 -1.99493e-16)
(0.0731467 0.102079 -3.46947e-21)
(0.0796664 0.0970767 1.99493e-16)
(0.0858449 0.0916584 3.46947e-21)
(0.0916559 0.0858476 -1.99497e-16)
(0.0970743 0.0796692 -1.9949e-16)
(0.102077 0.0731497 -5.9848e-16)
(0.106643 0.0663169 0)
(0.110752 0.0592001 -1.99497e-16)
(0.114387 0.0518299 3.46947e-21)
(0.117531 0.0442377 -1.99497e-16)
(0.120173 0.036456 1.99493e-16)
(0.1223 0.0285183 -1.99493e-16)
(0.123903 0.0204584 -1.99493e-16)
(0.124976 0.0123109 0)
(0.125514 0.00411074 -3.98986e-16)
(0.125514 -0.00410705 1.99493e-16)
(0.124977 -0.0123073 -3.98986e-16)
(0.123904 -0.0204548 -1.99493e-16)
(0.122301 -0.0285147 -1.73474e-21)
(0.120174 -0.0364525 0)
(0.117533 -0.0442342 -1.99493e-16)
(0.114388 -0.0518265 0)
(0.110754 -0.0591969 -1.99493e-16)
(0.106645 -0.0663138 -1.99493e-16)
(0.102079 -0.0731467 1.9949e-16)
(0.0970767 -0.0796664 -1.9949e-16)
(0.0916584 -0.0858449 0)
(0.0858476 -0.0916559 1.99493e-16)
(0.0796692 -0.0970743 0)
(0.0731497 -0.102077 -1.99497e-16)
(0.0663169 -0.106643 -1.9949e-16)
(0.0592001 -0.110752 0)
(0.0518299 -0.114387 -1.9949e-16)
(0.0442377 -0.117531 0)
(0.036456 -0.120173 -3.98986e-16)
(0.0285183 -0.1223 -1.73474e-21)
(0.0204584 -0.123903 -3.98986e-16)
(0.0123109 -0.124976 -3.98986e-16)
(0.00411074 -0.125514 1.99494e-16)
(0.00182166 0.133501 -1.99493e-16)
(0.00203598 0.149207 1.99493e-16)
(0.00225029 0.164914 -1.99493e-16)
(0.00246461 0.18062 -1.99493e-16)
(0.00267892 0.196326 0)
(0.00289323 0.212032 1.99493e-16)
(0.00310755 0.227738 2.15239e-38)
(0.00332186 0.243444 1.99493e-16)
(0.00353617 0.25915 0)
(0.00375049 0.274856 1.43493e-38)
(0.0039648 0.290562 1.99493e-16)
(0.00417911 0.306268 0)
(0.133501 -0.00182166 -1.99493e-16)
(0.149207 -0.00203598 -3.58732e-39)
(0.164914 -0.00225029 0)
(0.18062 -0.00246461 -1.99493e-16)
(0.196326 -0.00267892 -1.99493e-16)
(0.212032 -0.00289323 1.43493e-38)
(0.227738 -0.00310755 -1.99493e-16)
(0.243444 -0.00332186 0)
(0.25915 -0.00353617 0)
(0.274856 -0.00375049 -3.98986e-16)
(0.290562 -0.0039648 -1.99493e-16)
(0.306268 -0.00417911 -1.99493e-16)
(0.133501 -0.00182166 -1.99493e-16)
(0.149207 -0.00203598 0)
(0.164914 -0.00225029 0)
(0.18062 -0.00246461 0)
(0.196326 -0.00267892 0)
(0.212032 -0.00289323 1.43493e-38)
(0.227738 -0.00310755 -1.99493e-16)
(0.243444 -0.00332186 5.73972e-38)
(0.25915 -0.00353617 6.45718e-38)
(0.274856 -0.00375049 -3.98986e-16)
(0.290562 -0.0039648 3.58732e-38)
(0.306268 -0.00417911 1.99493e-16)
(-0.00182167 -0.133501 -1.99493e-16)
(-0.00203598 -0.149207 -1.99493e-16)
(-0.00225029 -0.164914 -3.98986e-16)
(-0.00246461 -0.18062 -3.98986e-16)
(-0.00267892 -0.196326 1.79366e-38)
(-0.00289323 -0.212032 -1.99493e-16)
(-0.00310755 -0.227738 -1.99493e-16)
(-0.00332186 -0.243444 -1.99493e-16)
(-0.00353617 -0.25915 -3.98986e-16)
(-0.00375049 -0.274856 -1.99493e-16)
(-0.0039648 -0.290562 -1.99493e-16)
(-0.00417911 -0.306268 -3.98986e-16)
)
;
    }
    stator
    {
        type            movingWallVelocity;
        value           nonuniform 0();
    }
    AMI1
    {
        type            cyclicAMI;
        value           nonuniform List<vector> 
48
(
(0.0486326 0.0301489 -1.76573e-22)
(0.0466834 0.016368 1.2783e-21)
(0.0408078 0.00572107 -2.64734e-20)
(0.0317419 -0.00112782 -2.73766e-20)
(0.020191 -0.00329207 7.26751e-20)
(0.00845879 -5.95512e-05 2.15495e-20)
(-0.00116271 0.0077642 -1.50887e-19)
(-0.00791647 0.0181407 1.79126e-20)
(-0.0127895 0.0291708 -3.09735e-20)
(-0.0167721 0.0400742 -1.37145e-20)
(-0.0203739 0.05064 -2.00342e-21)
(-0.024118 0.0567937 -1.16874e-20)
(-0.0234361 0.0532351 5.10925e-21)
(-0.0122264 0.0461978 -1.24708e-20)
(0.00660695 0.0480034 3.24032e-20)
(0.0229928 0.0444001 -3.62336e-20)
(0.0357882 0.0351938 3.47509e-20)
(0.0456137 0.0232801 7.77357e-21)
(0.052384 0.0106177 -7.29272e-20)
(0.0566918 -0.00135988 -2.34031e-20)
(0.058938 -0.0125375 1.24617e-20)
(0.0583516 -0.0236107 -1.9164e-20)
(0.0538693 -0.034474 4.37656e-21)
(0.0439483 -0.0445767 -3.35922e-21)
(0.0296134 -0.0490404 1.70642e-21)
(0.0157509 -0.0470808 -8.0921e-21)
(0.00522533 -0.041098 7.3032e-21)
(-0.00146464 -0.0318499 -1.62199e-20)
(-0.00343691 -0.0201751 -3.05012e-20)
(-5.01665e-05 -0.00840757 -8.18326e-20)
(0.00787041 0.00118246 -6.5897e-20)