/*--------------------------------*- C++ -*----------------------------------*\
| =========                 |                                                 |
| \\      /  F ield         | OpenFOAM: The Open Source CFD Toolbox           |
|  \\    /   O peration     | Version:  v1806                                 |
|   \\  /    A nd           | Web:      www.OpenFOAM.com                      |
|    \\/     M anipulation  |                                                 |
\*---------------------------------------------------------------------------*/
FoamFile
{
    version     2.0;
    format      ascii;
    class       volScalarField;
    location    "1";
    object      p;
}
// * * * * * * * * * * * * * * * * * * * * * * * * * * * * * * * * * * * * * //

dimensions      [0 2 -2 0 0 0 0];


internalField   nonuniform List<scalar> 
768
(
-0.0517173
-0.0516288
-0.0514678
-0.0512428
-0.0509801
-0.0506071
-0.0500645
-0.0493636
-0.0485023
-0.0475108
-0.0464377
-0.0453344
-0.0484499
-0.0484051
-0.048495
-0.0486541
-0.0486717
-0.0484849
-0.0481296
-0.0473678
-0.0462719
-0.044935
-0.0434778
-0.0420424
-0.0468405
-0.0469555
-0.0473616
-0.0478285
-0.0481016
-0.0480163
-0.0474423
-0.0465016
-0.0451762
-0.0435429
-0.0417361
-0.0399183
-0.0442546
-0.0445383
-0.0451359
-0.0456849
-0.0459782
-0.0459117
-0.0453979
-0.044442
-0.0430388
-0.0412354
-0.0391262
-0.0368164
-0.041327
-0.041588
-0.0421161
-0.0425958
-0.0428667
-0.0428055
-0.0423148
-0.0413574
-0.0398933
-0.0379349
-0.0355246
-0.0327466
-0.0379552
-0.0379287
-0.038182
-0.0384988
-0.0387254
-0.0386777
-0.0382216
-0.0373
-0.0357489
-0.0335416
-0.0307716
-0.0275913
-0.0344075
-0.0338161
-0.0336979
-0.0338755
-0.0341082
-0.0340389
-0.0334515
-0.0322612
-0.030493
-0.0280564
-0.0249881
-0.0215733
-0.030948
-0.0296509
-0.0293114
-0.0296491
-0.030153
-0.0301057
-0.0291667
-0.0274115
-0.0250362
-0.022171
-0.0188734
-0.015582
-0.027539
-0.0256295
-0.0253901
-0.0262794
-0.0273242
-0.0273863
-0.0261034
-0.0237367
-0.0206672
-0.0172784
-0.0138311
-0.0106408
-0.0237266
-0.0215015
-0.0215887
-0.0231856
-0.0249155
-0.0253024
-0.0240031
-0.0212949
-0.0178141
-0.0140891
-0.0104525
-0.00717143
-0.0192497
-0.0169014
-0.017483
-0.0199596
-0.0225066
-0.0234358
-0.0223125
-0.0195437
-0.0159228
-0.0121251
-0.00847193
-0.00514191
-0.0144112
-0.0121973
-0.0132494
-0.0166772
-0.0200157
-0.0215423
-0.0207857
-0.0181889
-0.0146504
-0.0109422
-0.00736633
-0.00404261
-0.0442653
-0.0432909
-0.0424325
-0.0417306
-0.041256
-0.0410001
-0.0408915
-0.0407727
-0.040479
-0.0399858
-0.0394095
-0.0389028
-0.0407587
-0.0396774
-0.0388171
-0.0382696
-0.0381396
-0.0383435
-0.0387092
-0.0389212
-0.038701
-0.0379922
-0.0369725
-0.0361001
-0.0381918
-0.0365966
-0.0352843
-0.0344963
-0.034273
-0.0345357
-0.0350983
-0.0355455
-0.0354544
-0.0346849
-0.033653
-0.0328986
-0.0344296
-0.0322079
-0.0304878
-0.0294381
-0.0289765
-0.029067
-0.029459
-0.0298468
-0.0299015
-0.0295848
-0.0292159
-0.0290434
-0.0298781
-0.0273884
-0.0255951
-0.024494
-0.0239475
-0.0238038
-0.0238821
-0.0239948
-0.0239842
-0.0239642
-0.0243814
-0.025
-0.0244972
-0.0220577
-0.0204628
-0.0195479
-0.0190671
-0.0188279
-0.0187155
-0.0186291
-0.0185036
-0.0183353
-0.018818
-0.0205152
-0.0185049
-0.016276
-0.0149829
-0.0143611
-0.0140874
-0.0139103
-0.0137365
-0.0133805
-0.0130999
-0.0128779
-0.0130684
-0.0152057
-0.0127277
-0.0107133
-0.00968045
-0.00932678
-0.00922267
-0.00905517
-0.00866712
-0.00827359
-0.00775201
-0.00731018
-0.00721334
-0.00881783
-0.0080036
-0.00615794
-0.00519349
-0.00492281
-0.00491812
-0.00479938
-0.00438876
-0.00370644
-0.00275325
-0.00173173
-0.000922164
-0.00143231
-0.00451783
-0.00272015
-0.00180216
-0.00150079
-0.00142411
-0.00125141
-0.000767151
0.000127616
0.00146537
0.00314606
0.00509829
0.00620507
-0.00236634
-0.000394472
0.000702664
0.00112081
0.001245
0.00145972
0.00201504
0.00304528
0.00467095
0.00696101
0.00984408
0.0123565
-0.00118791
0.000952679
0.0023123
0.00298938
0.00324358
0.00345025
0.00393779
0.00491386
0.00650798
0.00881891
0.0122175
0.0153388
-0.0517644
-0.0515938
-0.0513867
-0.0511571
-0.0509086
-0.050548
-0.0500099
-0.0493069
-0.0484426
-0.0474488
-0.0463747
-0.0452722
-0.0484939
-0.0484264
-0.0485101
-0.0486624
-0.0486721
-0.0484748
-0.0481067
-0.0473329
-0.046224
-0.044876
-0.0434114
-0.0419736
-0.046867
-0.0469719
-0.0473771
-0.047843
-0.0481111
-0.0480174
-0.0474306
-0.046473
-0.0451312
-0.0434835
-0.0416657
-0.039841
-0.0442707
-0.0445559
-0.0451565
-0.0457085
-0.0459997
-0.0459273
-0.0454028
-0.0444317
-0.0430113
-0.0411902
-0.0390638
-0.0367374
-0.0413431
-0.0416052
-0.0421357
-0.042619
-0.0428947
-0.0428329
-0.0423356
-0.0413668
-0.0398857
-0.0379053
-0.0354717
-0.0326699
-0.0379746
-0.0379491
-0.0382048
-0.0385269
-0.0387595
-0.0387147
-0.0382571
-0.03733
-0.0357584
-0.0335167
-0.0307284
-0.02752
-0.0344337
-0.0338418
-0.0337222
-0.0338987
-0.0341295
-0.0340588
-0.033471
-0.0322643
-0.030476
-0.0280309
-0.0249792
-0.0215083
-0.0309809
-0.0296812
-0.0293345
-0.02966
-0.0301463
-0.0300827
-0.0291311
-0.0273718
-0.0249914
-0.0221057
-0.0187429
-0.0154943
-0.0275776
-0.0256653
-0.0254166
-0.0262853
-0.0272968
-0.0273273
-0.0260252
-0.023648
-0.0205779
-0.0171882
-0.0137342
-0.0105701
-0.0237689
-0.0215427
-0.0216211
-0.0231937
-0.0248808
-0.0252254
-0.0238951
-0.0211758
-0.0176967
-0.0139799
-0.0103579
-0.0071053
-0.0192886
-0.0169421
-0.0175174
-0.019972
-0.0224738
-0.0233535
-0.0221944
-0.0194125
-0.0157988
-0.0120175
-0.00838427
-0.00507995
-0.0144379
-0.0122271
-0.0132777
-0.016692
-0.0199916
-0.0214677
-0.0206713
-0.0180594
-0.0145313
-0.0108438
-0.00728979
-0.00398929
-0.0442067
-0.0432372
-0.0423827
-0.0416839
-0.0412113
-0.0409563
-0.0408481
-0.0407301
-0.0404364
-0.0399427
-0.0393662
-0.0388601
-0.0406912
-0.0396117
-0.0387545
-0.0382123
-0.0380822
-0.0382864
-0.0386534
-0.038867
-0.0386458
-0.0379376
-0.0369229
-0.036056
-0.0381092
-0.0365101
-0.0352001
-0.0344163
-0.0341991
-0.0344604
-0.0350181
-0.0354596
-0.0353657
-0.0346032
-0.0335857
-0.0328456
-0.0343393
-0.0321189
-0.0304096
-0.0293697
-0.0289116
-0.0289979
-0.0293773
-0.0297505
-0.0297998
-0.0294952
-0.0291508
-0.0289964
-0.0297928
-0.0273154
-0.0255414
-0.0244556
-0.0239162
-0.0237686
-0.023834
-0.023931
-0.0239088
-0.0238865
-0.024318
-0.0249582
-0.0244242
-0.0220045
-0.0204315
-0.0195314
-0.0190552
-0.0188095
-0.0186836
-0.0185852
-0.0184514
-0.0182742
-0.0187494
-0.0204685
-0.0184437
-0.0162396
-0.0149679
-0.0143557
-0.0140795
-0.0138915
-0.0137022
-0.0133387
-0.0130504
-0.0128242
-0.0130101
-0.0151542
-0.0126702
-0.01069
-0.00968198
-0.00933451
-0.00922258
-0.00904081
-0.00864156
-0.00823278
-0.00770108
-0.00725488
-0.00715631
-0.00876557
-0.00796217
-0.00614403
-0.00520542
-0.004943
-0.0049298
-0.00479464
-0.00436794
-0.00367134
-0.00270611
-0.0016742
-0.000866009
-0.00138437
-0.0044837
-0.002718
-0.00182196
-0.00152652
-0.00144164
-0.00125282
-0.000751297
0.000157914
0.00150714
0.00320877
0.00514293
0.00624252
-0.00233441
-0.000393067
0.000681918
0.00109278
0.00122442
0.00145408
0.00202549
0.00306867
0.00469946
0.00697383
0.00987106
0.0123786
-0.00116033
0.000954434
0.00229458
0.00296389
0.00322245
0.00344115
0.00394293
0.00493105
0.00653248
0.00884538
0.0122522
0.0153732
-0.00641261
-0.00747629
-0.00976728
-0.0141997
-0.0181011
-0.0199488
-0.0194175
-0.0170093
-0.0136937
-0.0102104
-0.00678548
-0.00348713
-0.00296552
-0.00683575
-0.00946542
-0.0132432
-0.016762
-0.0184108
-0.0178283
-0.0156432
-0.0127401
-0.00963293
-0.00643205
-0.0031936
-0.00151749
-0.00617385
-0.009112
-0.0121087
-0.0148764
-0.0162357
-0.0158626
-0.0141708
-0.0118022
-0.00911546
-0.00613161
-0.00286854
-0.000986669
-0.00499129
-0.0078333
-0.0103708
-0.0127052
-0.0140795
-0.0140647
-0.0128867
-0.0109935
-0.00869912
-0.00592687
-0.00246231
-0.000570562
0.00167155
0.00322188
0.00412696
0.00454508
0.00478229
0.00515126
0.00587803
0.00706827
0.00856355
0.0098136
0.00719793
-0.000292434
0.00192233
0.00359877
0.00466864
0.00520664
0.00549694
0.00577367
0.00621682
0.00684852
0.00742203
0.0071094
0.00474313
-5.8973e-05
0.00184543
0.00364969
0.00479146
0.00533224
0.00564524
0.00588601
0.00614446
0.00638072
0.00640798
0.00565352
0.0038157
0.000325984
0.00152389
0.00358441
0.00477746
0.00519549
0.00540697
0.00559091
0.00574029
0.00577852
0.00554612
0.00466409
0.00287487
-0.00641472
-0.0074825
-0.00978275
-0.0142137
-0.0180845
-0.0198861
-0.0193147
-0.0168917
-0.0135876
-0.0101255
-0.00672041
-0.00344107
-0.00293352
-0.00681885
-0.00946855
-0.0132492
-0.0167439
-0.0183558
-0.0177385
-0.0155444
-0.0126524
-0.00956264
-0.00637743
-0.00315363
-0.00147757
-0.00615344
-0.00910616
-0.0121033
-0.0148531
-0.0161811
-0.0157873
-0.0140912
-0.0117313
-0.00905665
-0.00608398
-0.00283165
-0.000953918
-0.00497413
-0.00782486
-0.0103617
-0.012684
-0.0140361
-0.0140033
-0.0128208
-0.0109331
-0.00864765
-0.0058832
-0.00242514
-0.000545864
0.00167373
0.00320665
0.00410395
0.00452421
0.00477069
0.00515142
0.0058893
0.00708798
0.00859108
0.00984748
0.00724739
-0.000270126
0.00192464
0.00358579
0.00464817
0.00518641
0.00548339
0.00576958
0.00622254
0.00686217
0.00744288
0.00713531
0.00477237
-3.81917e-05
0.00184605
0.0036375
0.00477254
0.00531228
0.00562935
0.00587858
0.00614547
0.00638858
0.0064204
0.00566802
0.00383115
0.00034646
0.00152011
0.00357158
0.00475943
0.0051754
0.00539004
0.00557979
0.00573653
0.00578028
0.00555012
0.00466739
0.00289715
)
;

boundaryField
{
    rotor
    {
        type            zeroGradient;
    }
    stator
    {
        type            zeroGradient;
    }
    AMI1
    {
        type            cyclicAMI;
        value           nonuniform List<scalar> 
48
(
-0.000891686
-0.00449454
-0.00724564
-0.00969215
-0.0118583
-0.0131925
-0.0132525
-0.0122476
-0.0105399
-0.00839223
-0.00577157
-0.00264171
4.73134e-05
0.00148039
0.0034294
0.00454807
0.00501865
0.00526639
0.00543536
0.00553667
0.00549895
0.00517748
0.00425548
0.00251913
-0.000859129
-0.00447517
-0.00723384
-0.00967978
-0.0118361
-0.0131505
-0.0131948
-0.0121858
-0.0104826
-0.00834257
-0.00572976
-0.00260739
6.49965e-05
0.00147751
0.00341792
0.00453112
0.00499973
0.00525029
0.00542437
0.00553251
0.0055007
0.00518314
0.00426364
0.00254374
)
;
    }
    AMI2
    {
        type            cyclicAMI;
        value           nonuniform 0();
    }
    front
    {
        type            empty;
    }
    back
    {
        type            empty;
    }
    procBoundary2to3
    {
        type            processor;
        value           nonuniform List<scalar> 8(-0.0063126 -0.00287834 -0.00144265 -0.000908302 0.00717341 0.00470139 0.00376434 0.0028271);
    }
}


// ************************************************************************* //
