/*--------------------------------*- C++ -*----------------------------------*\
| =========                 |                                                 |
| \\      /  F ield         | OpenFOAM: The Open Source CFD Toolbox           |
|  \\    /   O peration     | Version:  v1806                                 |
|   \\  /    A nd           | Web:      www.OpenFOAM.com                      |
|    \\/     M anipulation  |                                                 |
\*---------------------------------------------------------------------------*/
FoamFile
{
    version     2.0;
    format      ascii;
    class       surfaceScalarField;
    location    "1";
    object      phi;
}
// * * * * * * * * * * * * * * * * * * * * * * * * * * * * * * * * * * * * * //

dimensions      [0 3 -1 0 0 0 0];
oriented        oriented;


internalField   nonuniform List<scalar> 
1460
(
-4.63643e-08
4.63644e-08
-3.37263e-08
-1.26379e-08
6.33455e-08
-9.70718e-08
2.02611e-07
-1.39265e-07
3.11953e-07
-1.09342e-07
3.53344e-07
-4.13907e-08
3.4129e-07
1.20542e-08
2.76731e-07
6.45594e-08
1.68162e-07
1.08568e-07
3.6623e-08
1.31539e-07
-8.51005e-08
1.21723e-07
7.38494e-08
-1.5895e-07
-4.1099e-08
8.74635e-08
9.69154e-08
-1.50652e-07
2.55317e-07
-2.55474e-07
3.64885e-07
-2.48833e-07
4.28815e-07
-1.73272e-07
4.73924e-07
-8.64997e-08
4.58809e-07
2.71693e-08
3.85723e-07
1.37646e-07
2.70277e-07
2.24014e-07
1.23668e-07
2.78148e-07
-3.48814e-08
2.80273e-07
2.2204e-07
-1.83072e-07
6.99007e-08
1.75629e-08
1.81574e-07
-2.62325e-07
2.41155e-07
-3.15055e-07
2.35143e-07
-2.42821e-07
1.95326e-07
-1.33455e-07
1.25062e-07
-1.62352e-08
6.69184e-08
8.53128e-08
1.9781e-08
1.84783e-07
-3.61861e-08
2.79981e-07
-1.20608e-07
3.6257e-07
-2.51535e-07
4.112e-07
4.41272e-07
-4.70768e-07
2.70722e-08
-9.50927e-09
-1.28215e-08
-2.22431e-07
-1.57185e-07
-1.70692e-07
-3.39512e-07
-6.04943e-08
-4.91569e-07
1.86025e-08
-5.72938e-07
6.51343e-08
-5.92161e-07
1.04536e-07
-5.67394e-07
1.60016e-07
-5.32659e-07
2.45246e-07
-5.31508e-07
3.61419e-07
-6.26069e-07
5.05762e-07
6.92689e-07
-8.77486e-07
-1.04823e-07
9.5314e-08
-3.8334e-07
5.60857e-08
-7.40515e-07
1.86483e-07
-1.06398e-06
2.62967e-07
-1.28477e-06
2.39397e-07
-1.37496e-06
1.55325e-07
-1.34576e-06
7.53305e-08
-1.23083e-06
4.50926e-08
-1.0865e-06
1.00913e-07
-9.77864e-07
2.52784e-07
-9.6907e-07
4.96968e-07
8.24888e-07
-1.10127e-06
-3.26944e-07
4.22258e-07
-8.41947e-07
5.71089e-07
-1.39809e-06
7.42626e-07
-1.88357e-06
7.4845e-07
-2.21036e-06
5.6618e-07
-2.33155e-06
2.76522e-07
-2.25448e-06
-1.74374e-09
-2.02178e-06
-1.87602e-07
-1.71446e-06
-2.06416e-07
-1.4281e-06
-3.35676e-08
-1.20948e-06
2.78342e-07
6.91221e-07
-1.07581e-06
-5.20382e-07
9.4264e-07
-1.21107e-06
1.26178e-06
-1.93033e-06
1.46189e-06
-2.55652e-06
1.37464e-06
-2.98524e-06
9.94901e-07
-3.16092e-06
4.52207e-07
-3.08653e-06
-7.6135e-08
-2.79677e-06
-4.77357e-07
-2.35096e-06
-6.52231e-07
-1.81965e-06
-5.64878e-07
-1.32298e-06
-2.1833e-07
2.3548e-07
-8.67238e-07
-5.5855e-07
1.50119e-06
-1.26287e-06
1.96609e-06
-1.97275e-06
2.17177e-06
-2.57152e-06
1.9734e-06
-2.96572e-06
1.3891e-06
-3.13091e-06
6.17393e-07
-3.09016e-06
-1.16887e-07
-2.88559e-06
-6.81929e-07
-2.5197e-06
-1.01811e-06
-1.98746e-06
-1.09712e-06
-1.3011e-06
-9.04698e-07
-4.87095e-07
-5.7852e-07
-3.82876e-07
1.88407e-06
-8.90792e-07
2.47401e-06
-1.38077e-06
2.66175e-06
-1.76358e-06
2.35622e-06
-1.97543e-06
1.60095e-06
-2.03176e-06
6.73727e-07
-1.9837e-06
-1.64944e-07
-1.87028e-06
-7.95349e-07
-1.69175e-06
-1.19665e-06
-1.40581e-06
-1.38306e-06
-9.36561e-07
-1.37394e-06
-1.17264e-06
-2.51012e-07
-4.33083e-08
1.92737e-06
-2.11033e-07
2.64173e-06
-3.4176e-07
2.79248e-06
-4.52492e-07
2.46695e-06
-5.17371e-07
1.66582e-06
-5.21567e-07
6.77922e-07
-4.56929e-07
-2.29581e-07
-3.36601e-07
-9.15677e-07
-1.91313e-07
-1.34193e-06
-2.21885e-08
-1.55219e-06
2.12337e-07
-1.60847e-06
-1.54259e-06
5.82287e-07
4.16461e-07
1.51091e-06
6.47195e-07
2.411e-06
8.55519e-07
2.58415e-06
1.00031e-06
2.32216e-06
1.0676e-06
1.59854e-06
1.10461e-06
6.40906e-07
1.1627e-06
-2.87665e-07
1.25067e-06
-1.00366e-06
1.36217e-06
-1.45343e-06
1.5073e-06
-1.69731e-06
1.70283e-06
-1.804e-06
-1.796e-06
1.95624e-06
4.92163e-07
1.01875e-06
1.26537e-06
1.6378e-06
1.9137e-06
1.93581e-06
2.36573e-06
1.87013e-06
2.63521e-06
1.32907e-06
2.79541e-06
4.80702e-07
2.89355e-06
-3.8581e-07
2.95063e-06
-1.06073e-06
2.98975e-06
-1.49256e-06
3.04674e-06
-1.75429e-06
3.15786e-06
-1.91512e-06
3.343e-06
-1.98114e-06
-1.63777e-07
4.82742e-09
-1.22745e-07
-4.10322e-08
-5.30515e-08
-6.96936e-08
7.01076e-08
-1.23159e-07
2.39674e-07
-1.69567e-07
4.26625e-07
-1.86951e-07
5.85184e-07
-1.58559e-07
6.59578e-07
-7.43945e-08
6.15676e-07
4.39024e-08
4.47287e-07
1.68389e-07
1.94669e-07
2.52618e-07
1.94669e-07
-3.33128e-07
1.54883e-07
-5.04129e-07
1.29969e-07
-6.41926e-07
6.8103e-08
-6.78147e-07
-8.69387e-08
-6.05244e-07
-2.42469e-07
-4.37621e-07
-3.54574e-07
-2.23081e-07
-3.73099e-07
-2.06217e-08
-2.76854e-07
1.18829e-07
-9.55485e-08
1.28752e-07
1.58467e-07
4.85054e-08
3.32864e-07
2.43174e-07
-8.09171e-07
4.93286e-07
-1.18079e-06
5.01587e-07
-1.47516e-06
3.6247e-07
-1.67337e-06
1.11277e-07
-1.76898e-06
-1.46859e-07
-1.71266e-06
-4.10891e-07
-1.50398e-06
-5.81782e-07
-1.15857e-06
-6.22265e-07
-7.59241e-07
-4.94879e-07
-4.00358e-07
-2.00416e-07
-1.37986e-07
7.04914e-08
1.05189e-07
-1.27137e-06
8.87166e-07
-1.69857e-06
9.28795e-07
-2.08693e-06
7.50832e-07
-2.41686e-06
4.41206e-07
-2.63966e-06
7.59359e-08
-2.73396e-06
-3.16588e-07
-2.62871e-06
-6.87032e-07
-2.27166e-06
-9.7932e-07
-1.65213e-06
-1.11441e-06
-8.53325e-07
-9.99217e-07
-1.96474e-07
-5.86359e-07
-9.12858e-08
-1.33916e-06
1.12505e-06
-1.61741e-06
1.20705e-06
-1.91374e-06
1.04716e-06
-2.22102e-06
7.48485e-07
-2.50655e-06
3.61469e-07
-2.72723e-06
-9.59071e-08
-2.82899e-06
-5.85272e-07
-2.73541e-06
-1.0729e-06
-2.33333e-06
-1.51649e-06
-1.53538e-06
-1.79717e-06
-5.05053e-07
-1.61668e-06
-5.96339e-07
-1.01653e-06
1.06577e-06
-1.01575e-06
1.20627e-06
-1.06643e-06
1.09784e-06
-1.16187e-06
8.43921e-07
-1.30485e-06
5.04457e-07
-1.50643e-06
1.0567e-07
-1.7427e-06
-3.49008e-07
-1.95191e-06
-8.63692e-07
-2.02696e-06
-1.44144e-06
-1.7692e-06
-2.05493e-06
-9.52368e-07
-2.43351e-06
-1.54871e-06
-4.77677e-07
6.76214e-07
-1.80563e-07
9.09153e-07
6.05057e-09
9.11227e-07
9.72403e-08
7.52731e-07
1.12167e-07
4.8953e-07
5.43357e-08
1.63501e-07
-1.16955e-07
-1.77717e-07
-3.88846e-07
-5.91801e-07
-7.38739e-07
-1.09155e-06
-1.05262e-06
-1.74105e-06
-9.20648e-07
-2.56548e-06
-2.46935e-06
9.80827e-08
-3.8867e-10
6.449e-07
3.62335e-07
1.02401e-06
5.32114e-07
1.24373e-06
5.33011e-07
1.32513e-06
4.08136e-07
1.28667e-06
2.0196e-07
1.15932e-06
-5.03704e-08
9.21893e-07
-3.54371e-07
5.82997e-07
-7.52649e-07
1.35828e-07
-1.29389e-06
-2.78469e-07
-2.15118e-06
-2.74782e-06
5.56087e-07
-8.07487e-07
1.31072e-06
-3.92302e-07
1.88246e-06
-3.96243e-08
2.23468e-06
1.80792e-07
2.38046e-06
2.62358e-07
2.35684e-06
2.25576e-07
2.20291e-06
1.03564e-07
1.93534e-06
-8.67989e-08
1.5478e-06
-3.65117e-07
1.05521e-06
-8.01296e-07
4.27437e-07
-1.52341e-06
-2.32039e-06
1.13332e-06
-1.35852e-06
1.8095e-06
-1.06848e-06
2.47763e-06
-7.07754e-07
2.99548e-06
-3.37059e-07
3.28133e-06
-2.34884e-08
3.32812e-06
1.78787e-07
3.17788e-06
2.53797e-07
2.87691e-06
2.14178e-07
2.4427e-06
6.90942e-08
1.823e-06
-1.81598e-07
1.0217e-06
-7.22104e-07
-1.29869e-06
2.27081e-06
-1.6731e-06
2.65227e-06
-1.44993e-06
3.09717e-06
-1.15265e-06
3.55834e-06
-7.98226e-07
3.93998e-06
-4.05133e-07
4.1388e-06
-2.00376e-08
4.1036e-06
2.89e-07
3.8415e-06
4.76275e-07
3.3742e-06
5.36395e-07
2.70105e-06
4.91559e-07
1.69079e-06
2.88151e-07
3.921e-07
3.588e-06
-1.91811e-06
3.85116e-06
-1.71309e-06
4.10002e-06
-1.40152e-06
4.33505e-06
-1.03325e-06
4.5689e-06
-6.38984e-07
4.77435e-06
-2.25484e-07
4.86965e-06
1.93697e-07
4.77142e-06
5.74501e-07
4.42907e-06
8.78746e-07
3.76991e-06
1.15072e-06
2.54673e-06
1.51133e-06
2.93883e-06
-4.38489e-08
4.38489e-08
-3.65967e-08
-7.25234e-09
6.95064e-08
-1.06103e-07
2.13592e-07
-1.44086e-07
3.23634e-07
-1.10042e-07
3.63326e-07
-3.96927e-08
3.49094e-07
1.42325e-08
2.81802e-07
6.72915e-08
1.70505e-07
1.11297e-07
3.6779e-08
1.33726e-07
-8.60922e-08
1.22871e-07
7.36487e-08
-1.59741e-07
-3.73363e-08
8.11851e-08
1.07822e-07
-1.5241e-07
2.63538e-07
-2.61819e-07
3.7218e-07
-2.52728e-07
4.35559e-07
-1.73422e-07
4.80487e-07
-8.46207e-08
4.62743e-07
3.19764e-08
3.87354e-07
1.42681e-07
2.69413e-07
2.29238e-07
1.20167e-07
2.82972e-07
-4.06187e-08
2.83657e-07
2.24083e-07
-1.91053e-07
6.89926e-08
1.21924e-08
1.83985e-07
-2.67403e-07
2.43083e-07
-3.20917e-07
2.37507e-07
-2.47152e-07
1.99068e-07
-1.34982e-07
1.29195e-07
-1.47477e-08
7.15913e-08
8.95797e-08
2.32253e-08
1.91047e-07
-3.55057e-08
2.87969e-07
-1.23585e-07
3.71052e-07
-2.59521e-07
4.19593e-07
4.51102e-07
-4.8654e-07
2.60472e-08
-1.38548e-08
-1.309e-08
-2.28266e-07
-1.56319e-07
-1.77688e-07
-3.35123e-07
-6.83475e-08
-4.83166e-07
1.30604e-08
-5.61764e-07
6.38498e-08
-5.80257e-07
1.08073e-07
-5.57143e-07
1.67933e-07
-5.26056e-07
2.56881e-07
-5.30838e-07
3.75834e-07
-6.34068e-07
5.22823e-07
7.12748e-07
-8.95713e-07
-1.05506e-07
9.16513e-08
-3.82831e-07
4.90587e-08
-7.35912e-07
1.75394e-07
-1.05429e-06
2.50034e-07
-1.26985e-06
2.28613e-07
-1.35607e-06
1.50076e-07
-1.32571e-06
7.7713e-08
-1.21292e-06
5.51414e-08
-1.07331e-06
1.17272e-07
-9.72687e-07
2.75208e-07
-9.73735e-07
5.23871e-07
8.53236e-07
-1.11422e-06
-3.26785e-07
4.18436e-07
-8.39533e-07
5.61807e-07
-1.3917e-06
7.27564e-07
-1.87165e-06
7.29977e-07
-2.19208e-06
5.49048e-07
-2.30772e-06
2.6571e-07
-2.22711e-06
-2.89456e-09
-1.99588e-06
-1.76082e-07
-1.69507e-06
-1.83538e-07
-1.41626e-06
-3.60591e-09
-1.20715e-06
3.14758e-07
7.25013e-07
-1.07892e-06
-5.20134e-07
9.3857e-07
-1.21005e-06
1.25172e-06
-1.92751e-06
1.44502e-06
-2.55035e-06
1.35282e-06
-2.97453e-06
9.73232e-07
-3.14535e-06
4.36527e-07
-3.06611e-06
-8.21358e-08
-2.77206e-06
-4.70128e-07
-2.32469e-06
-6.30905e-07
-1.79597e-06
-5.32326e-07
-1.31298e-06
-1.68233e-07
2.71703e-07
-8.59672e-07
-5.58926e-07
1.4975e-06
-1.26455e-06
1.95734e-06
-1.97544e-06
2.15591e-06
-2.57457e-06
1.95195e-06
-2.96868e-06
1.36734e-06
-3.1333e-06
6.01147e-07
-3.09082e-06
-1.24621e-07
-2.88169e-06
-6.79257e-07
-2.50877e-06
-1.00382e-06
-1.97105e-06
-1.07005e-06
-1.27502e-06
-8.64259e-07
-4.44878e-07
-5.58443e-07
-3.83737e-07
1.88123e-06
-8.93847e-07
2.46745e-06
-1.38623e-06
2.64829e-06
-1.77111e-06
2.33683e-06
-1.98518e-06
1.58141e-06
-2.04402e-06
6.59984e-07
-1.99804e-06
-1.70604e-07
-1.88462e-06
-7.92675e-07
-1.70266e-06
-1.18578e-06
-1.40831e-06
-1.3644e-06
-9.25169e-07
-1.3474e-06
-1.14105e-06
-2.28994e-07
-4.4441e-08
1.92567e-06
-2.1487e-07
2.63788e-06
-3.4891e-07
2.78233e-06
-4.62611e-07
2.45053e-06
-5.29769e-07
1.64857e-06
-5.34696e-07
6.6491e-07
-4.70297e-07
-2.35002e-07
-3.50647e-07
-9.12325e-07
-2.05612e-07
-1.33081e-06
-3.432e-08
-1.53569e-06
2.07109e-07
-1.58883e-06
-1.52165e-06
5.87704e-07
4.14544e-07
1.51113e-06
6.42153e-07
2.41027e-06
8.4702e-07
2.57747e-06
9.88154e-07
2.3094e-06
1.05319e-06
1.58353e-06
1.08951e-06
6.28591e-07
1.14806e-06
-2.93551e-07
1.23676e-06
-1.00103e-06
1.34978e-06
-1.44383e-06
1.4977e-06
-1.68361e-06
1.6971e-06
-1.78823e-06
-1.77948e-06
1.95494e-06
4.8858e-07
1.02255e-06
1.25911e-06
1.63975e-06
1.90482e-06
1.93175e-06
2.35368e-06
1.86054e-06
2.62119e-06
1.31602e-06
2.78026e-06
4.69524e-07
2.87801e-06
-3.91311e-07
2.93529e-06
-1.0583e-06
2.97588e-06
-1.48442e-06
3.03577e-06
-1.74351e-06
3.151e-06
-1.90346e-06
3.34058e-06
-1.96906e-06
-1.64026e-07
4.28449e-09
-1.24217e-07
-3.9809e-08
-5.60704e-08
-6.81461e-08
6.57295e-08
-1.218e-07
2.34266e-07
-1.68537e-07
4.20936e-07
-1.8667e-07
5.79985e-07
-1.59049e-07
6.55173e-07
-7.51881e-08
6.1222e-07
4.29532e-08
4.45046e-07
1.67174e-07
1.93774e-07
2.51272e-07
1.93774e-07
-3.45672e-07
1.58903e-07
-5.2161e-07
1.36129e-07
-6.619e-07
7.2144e-08
-6.98875e-07
-8.48257e-08
-6.25431e-07
-2.4198e-07
-4.56897e-07
-3.55205e-07
-2.40439e-07
-3.75506e-07
-3.46651e-08
-2.80962e-07
1.07621e-07
-9.93332e-08
1.22294e-07
1.52501e-07
4.60449e-08
3.27521e-07
2.39819e-07
-8.33158e-07
5.05521e-07
-1.20851e-06
5.1148e-07
-1.50484e-06
3.68479e-07
-1.70482e-06
1.15147e-07
-1.80179e-06
-1.4501e-07
-1.74524e-06
-4.11753e-07
-1.53422e-06
-5.86527e-07
-1.18366e-06
-6.31519e-07
-7.74875e-07
-5.08119e-07
-4.0577e-07
-2.16603e-07
-1.37959e-07
5.97093e-08
1.0186e-07
-1.29621e-06
9.06013e-07
-1.72549e-06
9.40762e-07
-2.1147e-06
7.57696e-07
-2.4452e-06
4.4564e-07
-2.66797e-06
7.77642e-08
-2.76173e-06
-3.17999e-07
-2.65558e-06
-6.92676e-07
-2.29672e-06
-9.90377e-07
-1.6726e-06
-1.13224e-06
-8.66181e-07
-1.02302e-06
-1.98826e-07
-6.07646e-07
-9.69659e-08
-1.35538e-06
1.14718e-06
-1.63304e-06
1.21841e-06
-1.92691e-06
1.05157e-06
-2.23051e-06
7.49239e-07
-2.51233e-06
3.59586e-07
-2.73069e-06
-9.96368e-08
-2.83267e-06
-5.90696e-07
-2.74206e-06
-1.08099e-06
-2.34472e-06
-1.52958e-06
-1.54967e-06
-1.81807e-06
-5.14105e-07
-1.64321e-06
-6.1107e-07
-1.02126e-06
1.08951e-06
-1.01906e-06
1.21622e-06
-1.06595e-06
1.09846e-06
-1.15578e-06
8.39067e-07
-1.29263e-06
4.96434e-07
-1.48926e-06
9.69926e-08
-1.72319e-06
-3.5677e-07
-1.93417e-06
-8.70002e-07
-2.01581e-06
-1.44793e-06
-1.76876e-06
-2.06513e-06
-9.59411e-07
-2.45257e-06
-1.57048e-06
-4.72113e-07
7.01949e-07
-1.75859e-07
9.19965e-07
1.19613e-08
9.10639e-07
1.06067e-07
7.44962e-07
1.24361e-07
4.7814e-07
6.96206e-08
1.51733e-07
-9.92477e-08
-1.87902e-07
-3.68777e-07
-6.00473e-07
-7.18589e-07
-1.09812e-06
-1.03753e-06
-1.74618e-06
-9.16322e-07
-2.57377e-06
-2.4868e-06
1.12872e-07
3.06339e-08
6.54712e-07
3.78125e-07
1.03094e-06
5.34415e-07
1.24966e-06
5.26238e-07
1.3312e-06
3.96604e-07
1.29348e-06
1.89444e-07
1.16713e-06
-6.1551e-08
9.30176e-07
-3.63516e-07
5.92653e-07
-7.60597e-07
1.47067e-07
-1.3006e-06
-2.70164e-07
-2.15654e-06
-2.75697e-06
5.79222e-07
-7.77582e-07
1.32779e-06
-3.70439e-07
1.89236e-06
-3.01626e-08
2.239e-06
1.796e-07
2.38145e-06
2.54157e-07
2.35661e-06
2.14279e-07
2.20289e-06
9.21711e-08
1.93613e-06
-9.67574e-08
1.54916e-06
-3.73622e-07
1.05726e-06
-8.08705e-07
4.30629e-07
-1.52991e-06
-2.32634e-06
1.14772e-06
-1.3376e-06
1.82726e-06
-1.04997e-06
2.49198e-06
-6.94891e-07
3.00322e-06
-3.31633e-07
3.28262e-06
-2.52472e-08
3.32505e-06
1.71852e-07
3.17291e-06
2.44315e-07
2.87198e-06
2.04164e-07
2.43872e-06
5.96379e-08
1.82135e-06
-1.91327e-07
1.0218e-06
-7.30364e-07
-1.30454e-06
2.27443e-06
-1.6571e-06
2.66047e-06
-1.43601e-06
3.10753e-06
-1.14195e-06
3.5672e-06
-7.91301e-07
3.94446e-06
-4.0251e-07
4.13821e-06
-2.18978e-08
4.09914e-06
2.83381e-07
3.83512e-06
4.68184e-07
3.36786e-06
5.26902e-07
2.69612e-06
4.80413e-07
1.68902e-06
2.76734e-07
3.84486e-07
3.5894e-06
-1.90591e-06
3.85516e-06
-1.70178e-06
4.10554e-06
-1.39232e-06
4.34103e-06
-1.0268e-06
4.57376e-06
-6.35236e-07
4.77636e-06
-2.24503e-07
4.86823e-06
1.9151e-07
4.76735e-06
5.69066e-07
4.42373e-06
8.70525e-07
3.76408e-06
1.14006e-06
2.54182e-06
1.49899e-06
2.92631e-06
3.66066e-06
2.22681e-06
3.42865e-06
1.86981e-06
3.60049e-06
1.76397e-06
3.9706e-06
1.50002e-06
4.33277e-06
9.669e-07
4.57942e-06
2.3405e-07
4.69278e-06
-4.99172e-07
4.6995e-06
-1.06744e-06
4.66329e-06
-1.45635e-06
4.64046e-06
-1.73146e-06
4.66599e-06
-1.94065e-06
-2.06887e-06
4.75372e-06
6.44945e-06
2.41455e-06
6.22854e-06
2.09072e-06
6.17566e-06
1.81685e-06
6.27469e-06
1.40099e-06
6.42525e-06
8.16341e-07
6.50042e-06
1.58877e-07
6.46661e-06
-4.65357e-07
6.35684e-06
-9.57673e-07
6.23792e-06
-1.33743e-06
6.15652e-06
-1.65006e-06
6.13248e-06
-1.91661e-06
-2.09683e-06
6.16044e-06
7.86088e-06
2.17784e-06
7.96114e-06
1.99046e-06
8.04649e-06
1.73149e-06
8.10589e-06
1.34159e-06
8.1081e-06
8.14136e-07
8.0332e-06
2.3378e-07
7.88248e-06
-3.14638e-07
7.70461e-06
-7.7981e-07
7.5478e-06
-1.18062e-06
7.4484e-06
-1.55066e-06
7.42242e-06
-1.89063e-06
-2.12335e-06
7.44894e-06
8.52268e-06
8.74851e-06
8.93232e-06
9.04646e-06
9.06451e-06
8.98831e-06
8.84513e-06
8.67972e-06
8.53411e-06
8.43897e-06
8.42898e-06
8.50844e-06
4.8948e-06
-2.05918e-06
5.06343e-06
-1.88173e-06
5.22666e-06
-1.56475e-06
5.34699e-06
-1.15357e-06
5.41853e-06
-7.10527e-07
5.47593e-06
-2.82886e-07
5.53599e-06
1.33634e-07
5.55076e-06
5.59737e-07
5.43425e-06
9.95254e-07
5.13467e-06
1.4503e-06
4.73707e-06
1.90893e-06
2.8081e-06
4.8678e-06
6.21144e-06
-2.11018e-06
6.26239e-06
-1.93268e-06
6.31694e-06
-1.6193e-06
6.35561e-06
-1.19225e-06
6.35107e-06
-7.05989e-07
6.30631e-06
-2.38119e-07
6.2606e-06
1.79341e-07
6.25046e-06
5.69873e-07
6.26715e-06
9.78566e-07
6.28721e-06
1.43024e-06
6.33078e-06
1.86537e-06
2.50001e-06
6.63887e-06
7.45286e-06
-2.1141e-06
7.39392e-06
-1.87373e-06
7.33436e-06
-1.55974e-06
7.28178e-06
-1.13967e-06
7.22402e-06
-6.48231e-07
7.14773e-06
-1.61828e-07
7.05677e-06
2.70309e-07
6.98767e-06
6.38968e-07
6.98628e-06
9.79958e-07
7.07787e-06
1.33865e-06
7.24226e-06
1.70098e-06
2.11364e-06
7.62863e-06
8.53287e-06
8.37064e-06
8.18754e-06
8.04128e-06
7.94302e-06
7.87191e-06
7.80624e-06
7.74679e-06
7.72105e-06
7.77136e-06
7.91787e-06
8.2269e-06
3.65734e-06
2.23301e-06
3.42444e-06
1.87265e-06
3.59406e-06
1.76213e-06
3.96151e-06
1.49309e-06
4.32088e-06
9.56657e-07
4.56552e-06
2.24884e-07
4.67705e-06
-5.02842e-07
4.68373e-06
-1.06498e-06
4.64926e-06
-1.44995e-06
4.62937e-06
-1.72361e-06
4.65844e-06
-1.93253e-06
-2.06052e-06
4.7499e-06
6.44909e-06
2.42279e-06
6.22667e-06
2.09506e-06
6.17192e-06
1.81688e-06
6.26819e-06
1.39682e-06
6.41501e-06
8.09842e-07
6.48716e-06
1.52727e-07
6.45149e-06
-4.67171e-07
6.34232e-06
-9.5581e-07
6.22562e-06
-1.33325e-06
6.14723e-06
-1.64522e-06
6.12646e-06
-1.91176e-06
-2.09162e-06
6.15756e-06
7.86435e-06
2.18706e-06
7.96254e-06
1.99687e-06
8.04523e-06
1.7342e-06
8.10136e-06
1.34068e-06
8.10018e-06
8.11025e-07
8.02231e-06
2.30599e-07
7.87082e-06
-3.15685e-07
7.69377e-06
-7.78755e-07
7.5389e-06
-1.17838e-06
7.44205e-06
-1.54837e-06
7.41899e-06
-1.8887e-06
-2.12103e-06
7.4484e-06
8.52877e-06
8.75392e-06
8.93569e-06
9.04693e-06
9.06184e-06
8.98312e-06
8.83887e-06
8.67352e-06
8.52894e-06
8.43562e-06
8.42805e-06
8.51024e-06
4.89439e-06
-2.05041e-06
5.06556e-06
-1.87295e-06
5.23027e-06
-1.55703e-06
5.35122e-06
-1.14774e-06
5.42266e-06
-7.06679e-07
5.479e-06
-2.80837e-07
5.53689e-06
1.33621e-07
5.54906e-06
5.56895e-07
5.43058e-06
9.89006e-07
5.12998e-06
1.44066e-06
4.73262e-06
1.89635e-06
2.79297e-06
6.2111e-06
-2.10395e-06
6.26375e-06
-1.92559e-06
6.31935e-06
-1.61264e-06
6.35854e-06
-1.18693e-06
6.35412e-06
-7.02256e-07
6.30911e-06
-2.35834e-07
6.2624e-06
1.80336e-07
6.25019e-06
5.69101e-07
6.2642e-06
9.74994e-07
6.28182e-06
1.42305e-06
6.32393e-06
1.85424e-06
2.48435e-06
7.45438e-06
-2.10993e-06
7.3964e-06
-1.86761e-06
7.33731e-06
-1.55355e-06
7.28489e-06
-1.13451e-06
7.227e-06
-6.44365e-07
7.15044e-06
-1.59279e-07
7.05899e-06
2.71791e-07
6.98861e-06
6.3948e-07
6.98461e-06
9.78993e-07
7.07258e-06
1.33508e-06
7.23341e-06
1.69341e-06
2.10029e-06
8.53657e-06
8.37474e-06
8.19165e-06
8.04526e-06
7.94678e-06
7.8752e-06
7.80882e-06
7.74827e-06
7.72032e-06
7.7666e-06
7.90735e-06
)
;

boundaryField
{
    rotor
    {
        type            calculated;
        value           nonuniform List<scalar> 
96
(
-3.59307e-24
-6.64328e-24
1.73061e-23
7.02458e-23
1.01847e-23
-3.12776e-24
6.65621e-23
8.05209e-23
1.07533e-23
8.03919e-24
7.70311e-23
4.01312e-23
-6.48303e-23
-1.98394e-23
-1.46566e-23
1.9051e-23
-7.78842e-23
-5.34565e-23
1.19036e-22
3.88129e-23
2.09639e-23
3.36688e-23
2.92874e-23
-9.38335e-24
1.68926e-23
1.9568e-23
-6.94055e-24
2.11707e-23
8.6466e-24
1.2608e-22
1.53804e-23
-9.48285e-23
1.83802e-22
-3.89292e-23
1.85159e-22
-4.76275e-23
5.55748e-25
9.59529e-23
-1.18778e-23
6.81132e-23
-3.47803e-23
1.63472e-22
-2.5914e-23
6.9406e-24
3.64089e-23
-2.65732e-23
9.24111e-24
1.12704e-23
-8.47033e-22
0
0
0
-8.47033e-22
0
-8.47033e-22
0
0
-8.47033e-22
0
0
-4.23516e-22
0
0
0
0
8.47033e-22
0
0
8.47033e-22
8.47033e-22
0
1.69407e-21
0
0
0
8.47033e-22
0
8.47033e-22
8.47033e-22
-8.47033e-22
0
0
-8.47033e-22
0
0
0
0
-8.47033e-22
0
-8.47033e-22
-8.47033e-22
8.47033e-22
8.47033e-22
0
0
-1.69407e-21
)
;
    }
    stator
    {
        type            calculated;
        value           nonuniform 0();
    }
    AMI1
    {
        type            cyclicAMI;
        value           nonuniform List<scalar> 
48
(
1.877e-06
1.76464e-06
1.54768e-06
1.22745e-06
7.96091e-07
3.09982e-07
-1.71458e-07
-6.14406e-07
-1.03501e-06
-1.45553e-06
-1.88064e-06
-2.2028e-06
-2.13854e-06
-1.7115e-06
-1.37664e-06
-9.93411e-07
-5.49975e-07
-9.07197e-08
3.35984e-07
6.98414e-07
1.0057e-06
1.28834e-06
1.55447e-06
1.80462e-06
1.88519e-06
1.77172e-06
1.55243e-06
1.22944e-06
7.96116e-07
3.09312e-07
-1.71427e-07
-6.13404e-07
-1.0338e-06
-1.45505e-06
-1.88113e-06
-2.20322e-06
-2.13627e-06
-1.70578e-06
-1.37045e-06
-9.88126e-07
-5.4588e-07
-8.77004e-08
3.3817e-07
7.00031e-07
1.00694e-06
1.28881e-06
1.55266e-06
1.79615e-06
)
;
    }
    AMI2
    {
        type            cyclicAMI;
        value           nonuniform 0();
    }
    front
    {
        type            empty;
        value           nonuniform 0();
    }
    back
    {
        type            empty;
        value           nonuniform 0();
    }
    procBoundary2to3
    {
        type            processor;
        value           nonuniform List<scalar> 8(4.86596e-06 6.63254e-06 7.61747e-06 8.21149e-06 -4.86872e-06 -6.63719e-06 -7.62418e-06 -8.22184e-06);
    }
}


// ************************************************************************* //
