/*--------------------------------*- C++ -*----------------------------------*\
| =========                 |                                                 |
| \\      /  F ield         | OpenFOAM: The Open Source CFD Toolbox           |
|  \\    /   O peration     | Version:  v1806                                 |
|   \\  /    A nd           | Web:      www.OpenFOAM.com                      |
|    \\/     M anipulation  |                                                 |
\*---------------------------------------------------------------------------*/
FoamFile
{
    version     2.0;
    format      ascii;
    class       volVectorField;
    location    "1";
    object      U;
}
// * * * * * * * * * * * * * * * * * * * * * * * * * * * * * * * * * * * * * //

dimensions      [0 1 -1 0 0 0 0];


internalField   nonuniform List<vector> 
768
(
(-0.0182647 -0.134457 9.8362e-21)
(-0.0283916 -0.132597 4.00598e-20)
(-0.0331689 -0.129735 0)
(-0.0373909 -0.123054 3.84473e-19)
(-0.0431903 -0.115681 -3.79767e-19)
(-0.0505878 -0.109176 0)
(-0.0595954 -0.103813 -1.49483e-19)
(-0.0693057 -0.099663 0)
(-0.0794099 -0.096765 -5.78203e-19)
(-0.0893974 -0.094808 7.22507e-19)
(-0.0984437 -0.0932161 0)
(-0.105389 -0.0912157 -9.52507e-19)
(-0.00429515 -0.149482 3.38551e-20)
(-0.00194809 -0.14939 6.7316e-20)
(-0.00320218 -0.144483 -1.97411e-19)
(-0.0101462 -0.138397 -5.24185e-19)
(-0.021652 -0.132748 1.33523e-19)
(-0.0350056 -0.126881 3.88972e-19)
(-0.0483927 -0.121262 -2.56504e-19)
(-0.0620234 -0.116465 5.00636e-19)
(-0.0755922 -0.11244 -5.02042e-19)
(-0.0883061 -0.109601 -2.50252e-19)
(-0.0990191 -0.108636 2.35143e-19)
(-0.106735 -0.109866 4.50757e-19)
(-0.0108232 -0.160527 4.43102e-20)
(-0.00534687 -0.161086 0)
(-0.008153 -0.15825 5.87798e-20)
(-0.0200766 -0.155448 3.53823e-19)
(-0.0366959 -0.152717 -4.76299e-19)
(-0.0545418 -0.149289 3.56977e-19)
(-0.0717298 -0.144671 7.17824e-19)
(-0.0872054 -0.138269 -4.73424e-19)
(-0.100986 -0.13108 4.4399e-19)
(-0.113287 -0.124378 -4.39132e-19)
(-0.124082 -0.11959 -1.90828e-19)
(-0.134756 -0.117547 1.95888e-19)
(-0.00407133 -0.178329 -3.99641e-20)
(-0.000704398 -0.182879 5.11488e-20)
(-0.013604 -0.185373 0)
(-0.0335337 -0.189065 0)
(-0.0538268 -0.191099 0)
(-0.0723421 -0.189609 -6.20435e-19)
(-0.0893684 -0.184108 2.10954e-19)
(-0.105193 -0.175161 1.89701e-19)
(-0.119914 -0.163765 -1.82449e-19)
(-0.133602 -0.151627 -3.51046e-19)
(-0.14737 -0.140699 6.74913e-19)
(-0.164718 -0.131377 -1.98295e-20)
(-0.00667519 -0.196108 -2.28714e-20)
(-0.0139725 -0.207231 0)
(-0.03504 -0.217114 8.24457e-20)
(-0.0574331 -0.226866 0)
(-0.0771451 -0.232663 0)
(-0.0940151 -0.23294 0)
(-0.10888 -0.227308 -1.54788e-19)
(-0.122705 -0.216351 -1.58227e-19)
(-0.13634 -0.201279 1.76241e-19)
(-0.150922 -0.183545 1.71367e-20)
(-0.168194 -0.164275 2.01529e-20)
(-0.189749 -0.14473 4.88454e-19)
(-0.0174572 -0.213475 -8.99856e-24)
(-0.0362253 -0.233798 7.20053e-20)
(-0.062084 -0.251059 -1.41088e-19)
(-0.0855019 -0.267073 -1.25792e-19)
(-0.103661 -0.278058 1.24102e-19)
(-0.117323 -0.281927 1.23599e-19)
(-0.128643 -0.27749 2.46115e-19)
(-0.139676 -0.26461 -1.1819e-20)
(-0.151777 -0.244145 2.55762e-19)
(-0.166075 -0.218505 2.20389e-19)
(-0.183484 -0.189889 0)
(-0.203027 -0.159713 -3.872e-19)
(-0.0358584 -0.228748 -1.43575e-20)
(-0.0643846 -0.257583 -5.31633e-20)
(-0.0940365 -0.279947 0)
(-0.117253 -0.30098 2.0761e-19)
(-0.131821 -0.3167 -2.06469e-19)
(-0.139928 -0.324808 -1.10228e-19)
(-0.145649 -0.323757 -1.85217e-20)
(-0.152456 -0.312648 -3.93031e-20)
(-0.16181 -0.290817 1.59605e-19)
(-0.173705 -0.25869 -3.87427e-19)
(-0.187619 -0.219621 0)
(-0.202218 -0.179313 3.03317e-19)
(-0.0562407 -0.240706 2.47391e-20)
(-0.0917659 -0.27282 6.19647e-21)
(-0.122548 -0.293408 0)
(-0.142271 -0.313086 -1.67209e-19)
(-0.149651 -0.3278 5.6557e-21)
(-0.149585 -0.336247 2.55007e-19)
(-0.148587 -0.337864 -3.33628e-19)
(-0.151012 -0.33224 -1.70519e-19)
(-0.158074 -0.317857 -1.58939e-19)
(-0.168489 -0.291816 0)
(-0.1796 -0.252901 0)
(-0.189271 -0.205185 -9.20722e-20)
(-0.072299 -0.248287 8.14934e-21)
(-0.111793 -0.276497 5.74717e-21)
(-0.140124 -0.287476 -6.39226e-20)
(-0.153323 -0.29867 6.98334e-20)
(-0.151405 -0.305867 -6.99041e-20)
(-0.142346 -0.309506 1.5253e-19)
(-0.13508 -0.310849 5.31208e-21)
(-0.133699 -0.309384 -1.26522e-19)
(-0.138802 -0.303107 2.33429e-19)
(-0.148816 -0.289789 8.8856e-20)
(-0.160466 -0.266232 0)
(-0.169599 -0.230447 -5.20302e-20)
(-0.0782714 -0.252093 -2.90181e-21)
(-0.118745 -0.272888 3.19471e-20)
(-0.14361 -0.268107 6.26544e-20)
(-0.151182 -0.267559 -1.31342e-19)
(-0.141352 -0.266492 1.5058e-19)
(-0.125349 -0.267085 -3.61211e-19)
(-0.11373 -0.26946 1.48793e-19)
(-0.109223 -0.269725 1.19438e-19)
(-0.111728 -0.265687 -1.90175e-20)
(-0.119568 -0.257225 -1.81813e-19)
(-0.130363 -0.24406 0)
(-0.141094 -0.224544 1.71668e-19)
(-0.0713793 -0.2574 -1.43722e-20)
(-0.115429 -0.261378 2.18141e-20)
(-0.133969 -0.244496 -5.97682e-20)
(-0.137862 -0.23066 0)
(-0.125862 -0.222699 1.2675e-20)
(-0.107579 -0.221736 1.3205e-19)
(-0.0924079 -0.225123 1.18884e-19)
(-0.0848586 -0.227926 -1.0829e-19)
(-0.0852734 -0.227106 2.30292e-19)
(-0.0909618 -0.221768 -1.89067e-20)
(-0.0989392 -0.211893 -1.31118e-19)
(-0.107466 -0.197585 -6.12997e-20)
(-0.0333318 -0.283209 -2.29058e-24)
(-0.0930851 -0.263417 1.55538e-20)
(-0.115999 -0.229216 -5.85634e-21)
(-0.118949 -0.199561 -4.22638e-20)
(-0.107058 -0.182183 5.30565e-20)
(-0.0877339 -0.176087 1.98003e-21)
(-0.0695589 -0.177256 -2.06218e-19)
(-0.0595996 -0.181059 -1.64178e-19)
(-0.0586997 -0.183626 -3.27496e-19)
(-0.0632646 -0.183094 5.76796e-20)
(-0.0698281 -0.178941 1.59483e-19)
(-0.0766764 -0.170429 -2.52875e-20)
(-0.109376 -0.0883637 8.21529e-19)
(-0.111045 -0.0845868 -5.34353e-19)
(-0.112509 -0.0785818 3.79431e-19)
(-0.113567 -0.0699846 0)
(-0.112881 -0.0595582 1.20119e-19)
(-0.110334 -0.0488803 0)
(-0.107281 -0.0382096 -3.53385e-19)
(-0.10529 -0.0270282 5.28883e-19)
(-0.106031 -0.0155311 -2.92833e-19)
(-0.111273 -0.00416012 -1.73059e-19)
(-0.120381 0.00728528 1.17264e-19)
(-0.127423 0.0136321 1.34593e-20)
(-0.11316 -0.112075 -4.14197e-21)
(-0.123136 -0.110907 2.04574e-19)
(-0.135049 -0.107123 -2.14952e-19)
(-0.142689 -0.104535 0)
(-0.145953 -0.100262 8.48268e-20)
(-0.147001 -0.0921797 -1.89948e-19)
(-0.146851 -0.0788518 1.0573e-19)
(-0.145545 -0.0599344 3.14447e-19)
(-0.143252 -0.0371848 -2.15901e-19)
(-0.140642 -0.0138476 0)
(-0.142749 0.00596146 -4.95342e-20)
(-0.143608 0.0105465 2.40436e-20)
(-0.150305 -0.116378 3.36909e-19)
(-0.169915 -0.115025 -5.15411e-19)
(-0.185333 -0.116199 0)
(-0.195167 -0.119341 3.04244e-19)
(-0.202024 -0.120962 -4.55372e-19)
(-0.206992 -0.117144 1.55503e-19)
(-0.208491 -0.105356 1.3822e-19)
(-0.205583 -0.0843956 -8.16809e-20)
(-0.197189 -0.0551438 0)
(-0.183811 -0.0230024 0)
(-0.171261 0.00135492 -4.08753e-20)
(-0.160833 0.00647182 4.12062e-20)
(-0.187963 -0.123848 -7.10428e-19)
(-0.210291 -0.121356 1.55502e-20)
(-0.226107 -0.125022 1.07259e-20)
(-0.23798 -0.131425 2.30711e-19)
(-0.247884 -0.136595 0)
(-0.255747 -0.13849 -2.17104e-19)
(-0.259889 -0.135171 -1.83832e-21)
(-0.25757 -0.12317 -9.86228e-20)
(-0.24577 -0.0997784 0)
(-0.223417 -0.0651502 -5.95312e-20)
(-0.195164 -0.026825 9.63453e-20)
(-0.174041 -0.0037197 -1.78675e-20)
(-0.213394 -0.128252 -2.10836e-19)
(-0.231961 -0.119438 1.54223e-20)
(-0.243698 -0.118213 1.03376e-20)
(-0.253051 -0.121638 1.78908e-19)
(-0.262121 -0.12776 -7.73422e-20)
(-0.270444 -0.135033 0)
(-0.277241 -0.140783 2.44705e-19)
(-0.280916 -0.142727 8.9565e-20)
(-0.277247 -0.136702 -1.49721e-19)
(-0.261908 -0.116936 0)
(-0.233186 -0.0767811 0)
(-0.195658 -0.018308 -2.56021e-20)
(-0.221225 -0.132843 -3.1147e-19)
(-0.232376 -0.114802 2.81731e-20)
(-0.236623 -0.105561 0)
(-0.238582 -0.102371 0)
(-0.240547 -0.103538 7.72125e-20)
(-0.244396 -0.108798 1.36079e-19)
(-0.251729 -0.117609 -2.05201e-19)
(-0.260759 -0.127748 8.41701e-21)
(-0.268952 -0.137701 8.66849e-21)
(-0.271136 -0.141817 -2.90623e-20)
(-0.262927 -0.123592 4.56574e-20)
(-0.237141 -0.0535578 -7.42582e-21)
(-0.213362 -0.142398 2.20213e-20)
(-0.217221 -0.114787 -2.01094e-21)
(-0.214824 -0.0974338 6.69897e-21)
(-0.210909 -0.0881671 1.04387e-19)
(-0.207836 -0.0846638 0)
(-0.207056 -0.085298 0)
(-0.209577 -0.0889225 4.99158e-20)
(-0.21841 -0.0962034 8.73429e-21)
(-0.231197 -0.108279 3.48833e-20)
(-0.24512 -0.126131 -3.1845e-20)
(-0.258993 -0.141289 -1.06818e-20)
(-0.268907 -0.0995262 1.6069e-20)
(-0.195479 -0.159204 2.0164e-19)
(-0.19451 -0.122767 -1.45694e-19)
(-0.188485 -0.0969979 0)
(-0.181855 -0.0812667 -1.34457e-20)
(-0.17739 -0.0734837 1.3829e-20)
(-0.176479 -0.0711456 5.69988e-20)
(-0.179445 -0.0721627 -8.50445e-20)
(-0.186816 -0.0757417 2.72061e-20)
(-0.198469 -0.0822323 -4.04215e-20)
(-0.213803 -0.0936004 2.97764e-20)
(-0.232236 -0.119106 4.77196e-21)
(-0.274473 -0.119691 -6.39375e-21)
(-0.173596 -0.185051 -1.03842e-19)
(-0.171394 -0.140234 3.325e-20)
(-0.164523 -0.104298 5.46835e-20)
(-0.15687 -0.080035 -3.15135e-20)
(-0.152026 -0.0662406 -1.53275e-20)
(-0.15182 -0.0598662 5.41138e-20)
(-0.156432 -0.0577523 -1.15823e-20)
(-0.165248 -0.0585191 1.0519e-20)
(-0.178247 -0.0626117 -1.53443e-20)
(-0.196242 -0.0714393 1.31333e-20)
(-0.215669 -0.0879504 3.97035e-21)
(-0.264296 -0.105152 1.82186e-21)
(-0.148296 -0.196569 3.88896e-20)
(-0.14964 -0.160821 4.21829e-20)
(-0.145311 -0.122413 -1.30732e-20)
(-0.138303 -0.08848 2.71752e-20)
(-0.132715 -0.0642166 -1.52595e-20)
(-0.131653 -0.0502782 1.70785e-21)
(-0.136395 -0.0439486 -8.27993e-21)
(-0.146645 -0.0419714 -1.57666e-20)
(-0.161391 -0.0427262 1.42473e-20)
(-0.181839 -0.0472617 1.55425e-20)
(-0.207124 -0.0596036 -6.30782e-21)
(-0.253634 -0.0721516 2.47482e-21)
(-0.115542 -0.179097 -1.64998e-20)
(-0.121684 -0.156703 -1.46726e-20)
(-0.12428 -0.13057 -2.09666e-20)
(-0.123 -0.101645 -1.97333e-21)
(-0.119557 -0.0729631 -2.78392e-20)
(-0.117234 -0.0492413 -1.36638e-20)
(-0.119374 -0.0336217 2.24471e-20)
(-0.127875 -0.0255313 7.53028e-21)
(-0.143083 -0.0223257 -1.48927e-20)
(-0.16556 -0.021722 -1.25919e-20)
(-0.193065 -0.0254558 -4.61107e-21)
(-0.242289 -0.0259764 -1.56102e-20)
(-0.0833717 -0.156921 -2.40185e-20)
(-0.089903 -0.139218 5.17902e-22)
(-0.0961169 -0.119364 1.32414e-20)
(-0.101465 -0.0986759 -3.15188e-20)
(-0.105033 -0.0768644 6.96326e-20)
(-0.106523 -0.0539198 -4.05183e-21)
(-0.107661 -0.0322796 -1.31968e-20)
(-0.111873 -0.0153613 1.25488e-20)
(-0.122168 -0.0040808 -1.25706e-20)
(-0.141952 0.00401962 -1.17666e-20)
(-0.170748 0.0136769 1.70082e-20)
(-0.233089 0.0491368 2.36682e-20)
(-0.132547 0.0180201 -1.96245e-20)
(-0.132732 0.0293117 0)
(-0.129617 0.0325576 0)
(-0.122999 0.0368783 0)
(-0.115409 0.0428717 0)
(-0.108778 0.0503823 5.99755e-19)
(-0.103435 0.0594539 -1.34124e-18)
(-0.0993977 0.0692113 5.93289e-19)
(-0.0966168 0.0793676 -5.77196e-19)
(-0.094758 0.0893976 -1.32025e-19)
(-0.0932345 0.0984622 2.99801e-19)
(-0.0912745 0.105383 1.38195e-19)
(-0.148905 0.00398307 0)
(-0.14911 0.00198883 1.34622e-19)
(-0.144127 0.00282062 -1.31621e-19)
(-0.138132 0.0099095 2.60406e-19)
(-0.132484 0.0216448 -2.59633e-19)
(-0.126565 0.0351199 -5.1656e-19)
(-0.120943 0.0485651 7.74103e-19)
(-0.116185 0.06226 -2.50649e-19)
(-0.112231 0.0758722 -2.44872e-19)
(-0.109494 0.0886009 0)
(-0.108664 0.0992796 1.14456e-20)
(-0.110054 0.106935 4.68892e-19)
(-0.160386 0.0104859 7.3302e-20)
(-0.1611 0.00508042 -5.8382e-20)
(-0.15823 0.00776533 0)
(-0.155431 0.0198392 2.354e-19)
(-0.152615 0.0366354 -4.76435e-19)
(-0.149088 0.0545991 5.41811e-21)
(-0.144403 0.0718398 -7.17069e-19)
(-0.13798 0.087352 7.09102e-19)
(-0.130841 0.101187 -4.35113e-19)
(-0.124235 0.113549 6.47624e-19)
(-0.119597 0.124394 1.90203e-19)
(-0.117707 0.135246 -3.91982e-19)
(-0.178436 0.00377124 1.16293e-20)
(-0.182931 0.000400287 0)
(-0.185413 0.0133518 0)
(-0.189033 0.0333131 -3.09219e-19)
(-0.19089 0.0536321 2.07229e-19)
(-0.189209 0.0722226 2.10933e-19)
(-0.183563 0.0893757 -1.95252e-19)
(-0.174563 0.105328 5.76189e-19)
(-0.163194 0.120163 -1.90595e-19)
(-0.151163 0.13397 -1.84861e-19)
(-0.140381 0.147936 0)
(-0.131181 0.165671 0)
(-0.196181 0.00650731 -4.59888e-20)
(-0.207265 0.0136794 4.37582e-20)
(-0.217103 0.034588 -8.24901e-20)
(-0.226722 0.0568777 8.84862e-20)
(-0.232315 0.0766092 -1.6874e-19)
(-0.232352 0.0936061 3.26042e-19)
(-0.226519 0.108665 1.70881e-19)
(-0.215453 0.122713 -4.85383e-19)
(-0.200385 0.136567 3.18839e-19)
(-0.182713 0.151396 0)
(-0.163541 0.169019 0)
(-0.144148 0.190901 4.64656e-19)
(-0.213518 0.0172744 -1.92586e-20)
(-0.233786 0.0358034 -6.7979e-20)
(-0.251008 0.0614411 7.25415e-20)
(-0.266903 0.0847039 0)
(-0.27768 0.102865 -1.24381e-19)
(-0.281269 0.116677 -1.38811e-19)
(-0.276527 0.128248 -5.06289e-19)
(-0.26341 0.139583 2.61036e-19)
(-0.24287 0.152019 0)
(-0.217245 0.166672 4.50345e-19)
(-0.188715 0.184448 -4.37492e-19)
(-0.158771 0.2041 3.48999e-19)
(-0.228773 0.0356797 7.37877e-24)
(-0.257589 0.0639499 1.16712e-19)
(-0.279998 0.0933404 4.64959e-20)
(-0.301016 0.116371 0)
(-0.316631 0.130927 1.09928e-19)
(-0.324528 0.139216 1.94717e-19)
(-0.323171 0.14525 4.14087e-19)
(-0.311667 0.152405 1.82832e-19)
(-0.28938 0.162068 0)
(-0.256975 0.174212 -3.68966e-20)
(-0.218054 0.188367 0)
(-0.178082 0.203101 -1.66477e-19)
(-0.240731 0.0560843 -1.16999e-20)
(-0.27288 0.0913906 0)
(-0.293611 0.12191 -9.07905e-20)
(-0.313397 0.141444 0)
(-0.328168 0.148838 -8.42663e-20)
(-0.336592 0.14901 -1.02334e-19)
(-0.338063 0.148378 -1.00028e-20)
(-0.332138 0.151194 -2.09274e-20)
(-0.317247 0.15858 -2.84764e-19)
(-0.290589 0.169158 -4.70591e-21)
(-0.251117 0.180204 -2.26885e-19)
(-0.203347 0.189806 -6.67422e-21)
(-0.248319 0.0721793 2.98451e-20)
(-0.276583 0.111512 0)
(-0.28775 0.139607 0)
(-0.299089 0.152636 6.67255e-20)
(-0.306394 0.150765 1.43434e-19)
(-0.310112 0.141981 -3.16084e-19)
(-0.311471 0.135077 1.07738e-20)
(-0.309892 0.134059 1.41466e-19)
(-0.303358 0.139469 0)
(-0.289559 0.149677 2.30735e-20)
(-0.265291 0.161308 2.3935e-20)
(-0.228944 0.17012 -5.54608e-21)
(-0.252148 0.078169 -2.90543e-21)
(-0.272979 0.118554 2.92337e-20)
(-0.26842 0.143229 -2.87701e-20)
(-0.268023 0.150634 -1.93203e-21)
(-0.267079 0.140851 -4.14978e-19)
(-0.267728 0.125112 7.34934e-20)
(-0.270044 0.113798 -1.35891e-19)
(-0.270173 0.109595 1.3051e-20)
(-0.265977 0.112352 1.92945e-19)
(-0.257335 0.120359 2.39138e-19)
(-0.243893 0.13119 0)
(-0.223986 0.141735 3.30022e-20)
(-0.257457 0.071356 -1.43948e-20)
(-0.261516 0.115366 0)
(-0.244832 0.133754 -3.84445e-20)
(-0.231167 0.137489 3.88106e-20)
(-0.223343 0.125487 1.18323e-19)
(-0.222435 0.107372 6.2137e-20)
(-0.225762 0.0924686 0)
(-0.228416 0.0852124 2.01095e-19)
(-0.227398 0.0858393 -4.20956e-19)
(-0.22185 0.0916151 -2.48381e-19)
(-0.21177 0.0995752 -7.87334e-20)
(-0.197287 0.108007 0)
(-0.283335 0.0333751 0)
(-0.263617 0.0931305 0)
(-0.229559 0.115899 3.61364e-20)
(-0.20005 0.118711 -4.23113e-20)
(-0.18279 0.106777 -4.28079e-20)
(-0.176757 0.087552 0)
(-0.177905 0.0696298 -9.35079e-20)
(-0.181602 0.0599641 1.77458e-19)
(-0.184001 0.0592515 2.1311e-19)
(-0.18329 0.0638656 1.03192e-19)
(-0.178956 0.0703817 1.32752e-19)
(-0.170265 0.0771247 0)
(-0.0884608 0.109315 -2.59229e-19)
(-0.084709 0.110993 1.3192e-19)
(-0.078687 0.112548 -3.85456e-19)
(-0.0700167 0.113722 2.70304e-19)
(-0.0595493 0.113095 1.24694e-19)
(-0.0489272 0.110562 -1.21334e-19)
(-0.0383287 0.107488 -2.37449e-19)
(-0.0271837 0.105461 2.35504e-19)
(-0.0156836 0.106153 0)
(-0.00428677 0.111361 -5.65007e-20)
(0.00721551 0.120435 -2.81944e-20)
(0.0136164 0.127433 1.39571e-20)
(-0.112336 0.113466 2.31258e-19)
(-0.111055 0.123794 -2.03746e-19)
(-0.107365 0.135871 0)
(-0.104909 0.14344 1.89404e-20)
(-0.100624 0.14668 0)
(-0.0925019 0.147719 0)
(-0.0791242 0.147526 0)
(-0.0601595 0.146147 2.11716e-19)
(-0.0373511 0.143721 -2.15524e-19)
(-0.0140126 0.14095 5.34044e-20)
(0.00580263 0.142895 2.58966e-20)
(0.0104215 0.143639 -1.01727e-21)
(-0.116582 0.151236 0)
(-0.115342 0.171052 1.73226e-19)
(-0.11667 0.186453 -3.10411e-19)
(-0.119866 0.196299 1.64747e-19)
(-0.121481 0.203214 2.96707e-19)
(-0.117683 0.208184 2.95356e-19)
(-0.105952 0.209612 -2.96204e-19)
(-0.0850434 0.206539 -7.13483e-20)
(-0.0557763 0.197868 0)
(-0.0235148 0.184172 7.67024e-20)
(0.00097518 0.171315 0)
(0.00627607 0.160811 -1.06752e-20)
(-0.123832 0.189242 2.70144e-19)
(-0.121591 0.211513 -5.07327e-19)
(-0.125391 0.227214 -9.75595e-20)
(-0.131821 0.239067 2.29576e-19)
(-0.137045 0.248934 -1.00789e-19)
(-0.139054 0.256712 9.77845e-20)
(-0.135902 0.260759 -1.07402e-19)
(-0.124124 0.258344 1.67406e-19)
(-0.100963 0.246445 0)
(-0.0664319 0.223966 -6.47789e-20)
(-0.0278007 0.19545 2.92964e-20)
(-0.00395121 0.174018 0)
(-0.127961 0.214583 -2.29373e-19)
(-0.119434 0.232867 -1.77492e-19)
(-0.11832 0.244354 -7.84228e-20)
(-0.121759 0.253523 3.51032e-19)
(-0.127894 0.262386 -3.27062e-19)
(-0.135223 0.270527 1.50416e-19)
(-0.141106 0.277224 -1.5348e-19)
(-0.143302 0.280912 8.57958e-21)
(-0.137658 0.27737 0)
(-0.118273 0.26224 -4.11011e-20)
(-0.0780929 0.233693 2.26668e-20)
(-0.018692 0.19598 -3.6958e-20)
(-0.132267 0.222111 -1.923e-19)
(-0.114572 0.232841 3.3084e-19)
(-0.105509 0.236753 1.39057e-19)
(-0.102374 0.238442 -1.41015e-19)
(-0.103532 0.240133 1.96354e-19)
(-0.108736 0.243743 -7.73798e-20)
(-0.117524 0.250924 7.42726e-20)
(-0.127738 0.259939 1.76423e-20)
(-0.137924 0.268259 0)
(-0.142502 0.270728 0)
(-0.124792 0.262976 1.57272e-21)
(-0.0545359 0.237646 3.57329e-20)
(-0.141549 0.213928 -2.63537e-19)
(-0.114382 0.217348 2.63971e-20)
(-0.0973437 0.214637 -8.64415e-20)
(-0.088255 0.2105 0)
(-0.0848314 0.20725 -1.03382e-19)
(-0.0854594 0.206357 -1.0389e-19)
(-0.0890521 0.208839 -4.97458e-20)
(-0.0962469 0.217592 1.04136e-19)
(-0.10824 0.23035 -3.47502e-20)
(-0.126164 0.244342 2.03278e-20)
(-0.141783 0.258431 -1.95168e-20)
(-0.100455 0.269055 -7.1057e-21)
(-0.157996 0.195789 1.65007e-19)
(-0.122129 0.194444 1.00833e-19)
(-0.0968325 0.188187 6.16878e-20)
(-0.0814242 0.181446 4.52729e-20)
(-0.07381 0.176937 1.31932e-19)
(-0.0715119 0.176025 -1.4103e-20)
(-0.0724931 0.179009 0)
(-0.0760109 0.186395 0)
(-0.0824659 0.19805 3.30607e-20)
(-0.0937491 0.213397 0)
(-0.119161 0.231701 6.10154e-21)
(-0.120168 0.274311 0)
(-0.183456 0.173773 -6.54718e-20)
(-0.139132 0.171252 2.45203e-20)
(-0.103813 0.164198 -4.44012e-20)
(-0.0800508 0.156521 -6.01351e-20)
(-0.0665589 0.151743 1.82809e-20)
(-0.0602948 0.151623 -6.59936e-20)
(-0.0581602 0.156296 2.65513e-20)
(-0.0588584 0.165136 9.26887e-21)
(-0.0628857 0.178132 -9.26345e-21)
(-0.0717001 0.196134 0)
(-0.0881957 0.215551 -8.80322e-21)
(-0.105359 0.264146 1.6871e-21)
(-0.195644 0.148598 2.61779e-20)
(-0.159781 0.149585 4.70624e-21)
(-0.121607 0.145019 6.35577e-21)
(-0.0881214 0.137967 1.73337e-20)
(-0.0642821 0.132475 -1.62026e-20)
(-0.0506099 0.131561 0)
(-0.0443766 0.136429 0)
(-0.0423824 0.146747 0)
(-0.0430778 0.161499 -6.32777e-21)
(-0.0475436 0.181916 6.40583e-21)
(-0.0598529 0.207128 2.87629e-21)
(-0.0723771 0.253607 -1.64172e-21)
(-0.178658 0.115919 -2.32212e-20)
(-0.15616 0.121825 6.71234e-21)
(-0.130009 0.12418 -2.02215e-20)
(-0.101206 0.122757 0)
(-0.0727714 0.119319 5.92567e-21)
(-0.0493232 0.11711 -6.4632e-21)
(-0.0338988 0.119394 0)
(-0.0258973 0.12801 1.91222e-20)
(-0.0227017 0.143274 0)
(-0.0220791 0.165751 3.02952e-20)
(-0.0258169 0.193169 -1.08773e-20)
(-0.0262327 0.242308 -9.37391e-21)
(-0.156612 0.0836853 -1.54668e-20)
(-0.13884 0.0900689 1.15502e-20)
(-0.118994 0.096137 1.30734e-20)
(-0.0983636 0.101364 -1.75849e-20)
(-0.0766479 0.10487 -2.86819e-20)
(-0.0538484 0.106382 1.49854e-20)
(-0.0323789 0.107609 -3.00651e-20)
(-0.0155995 0.111928 -2.03952e-20)
(-0.00440115 0.122303 1.26234e-20)
(0.00364525 0.142121 -1.76904e-20)
(0.0132807 0.170929 0)
(0.0488651 0.233239 1.5348e-21)
(-0.059452 -0.146012 2.43454e-21)
(-0.0602038 -0.175639 0)
(-0.0763628 -0.178021 2.43466e-20)
(-0.0829576 -0.158838 3.39802e-20)
(-0.0746696 -0.139665 4.65702e-20)
(-0.0577289 -0.129332 8.96744e-20)
(-0.0418047 -0.12793 0)
(-0.0334683 -0.132251 8.25918e-20)
(-0.032802 -0.137691 1.79033e-19)
(-0.0363694 -0.14135 3.44956e-20)
(-0.0413369 -0.142268 -9.13061e-20)
(-0.046836 -0.139695 2.67768e-20)
(-0.0720765 -0.0715362 -3.11829e-21)
(-0.0654563 -0.0760374 1.18983e-20)
(-0.0636184 -0.08268 -2.09956e-20)
(-0.0585959 -0.0801993 2.1229e-20)
(-0.0467465 -0.0734219 -3.33941e-20)
(-0.0313176 -0.070672 9.82794e-20)
(-0.0186359 -0.0752297 6.94883e-20)
(-0.0122164 -0.0843853 0)
(-0.0113417 -0.0938907 1.33565e-19)
(-0.0132319 -0.101409 -1.17083e-20)
(-0.015884 -0.106266 -5.82179e-20)
(-0.0192683 -0.107938 -6.44097e-20)
(-0.0641506 -0.0417086 -1.4414e-22)
(-0.0611923 -0.0294225 -9.31071e-21)
(-0.0553179 -0.0239228 0)
(-0.0449746 -0.0209447 0)
(-0.0304285 -0.0206412 -2.69973e-20)
(-0.0153472 -0.025404 -9.53666e-20)
(-0.00418025 -0.0352288 -5.2788e-20)
(0.00154285 -0.0474726 -7.1074e-21)
(0.0034203 -0.0592702 -1.66799e-19)
(0.00379607 -0.0691077 3.6094e-20)
(0.00398381 -0.0761934 5.8433e-20)
(0.00344748 -0.0797296 2.34622e-20)
(-0.0534888 -0.033103 -9.88472e-22)
(-0.0513231 -0.0179738 1.19707e-21)
(-0.0449824 -0.00726131 0)
(-0.0349908 -0.000912843 1.86206e-20)
(-0.0220771 0.000402427 -9.6388e-20)
(-0.00922579 -0.00391814 0)
(0.000887748 -0.012981 5.50085e-20)
(0.00735806 -0.0245601 5.08265e-21)
(0.0113776 -0.0364408 3.92078e-20)
(0.0144983 -0.0473876 -2.38096e-20)
(0.0173527 -0.0561212 -1.36329e-20)
(0.019377 -0.0597871 -1.70277e-20)
(-0.0531883 -0.132576 3.58912e-21)
(-0.0604977 -0.120521 0)
(-0.0682479 -0.104544 1.26464e-20)
(-0.0762341 -0.0866682 7.95021e-20)
(-0.0843577 -0.0688705 -3.199e-20)
(-0.0916717 -0.0512294 4.28464e-20)
(-0.0968094 -0.0324606 -1.15115e-20)
(-0.100191 -0.0129344 -1.9665e-21)
(-0.104383 0.00532116 1.31187e-20)
(-0.113365 0.0222343 0)
(-0.124062 0.0400507 0)
(-0.139516 0.0863005 -2.57429e-21)
(-0.0248618 -0.105562 3.16905e-21)
(-0.0333062 -0.0987945 1.01563e-20)
(-0.0432442 -0.088027 -6.24766e-20)
(-0.0536254 -0.0736113 -3.30769e-20)
(-0.0639363 -0.0575475 2.04616e-20)
(-0.0739009 -0.0420172 -6.07746e-20)
(-0.0826653 -0.0270316 0)
(-0.0886951 -0.0108967 0)
(-0.0913663 0.00730479 2.51229e-20)
(-0.0916323 0.0273004 2.58342e-20)
(-0.0903631 0.0472248 2.72024e-21)
(-0.0831364 0.0765557 -7.19677e-21)
(-0.000638944 -0.079482 8.98249e-22)
(-0.01016 -0.0762461 -1.15511e-20)
(-0.0223776 -0.0703435 2.51348e-20)
(-0.0350669 -0.060222 -1.78343e-20)
(-0.0470626 -0.0467704 7.84712e-23)
(-0.0577884 -0.0324412 -2.00626e-20)
(-0.067147 -0.0188705 1.10154e-20)
(-0.0746064 -0.00574385 3.21905e-20)
(-0.078781 0.00852214 -2.37077e-20)
(-0.0778607 0.0250794 -2.44177e-20)
(-0.0723338 0.0421996 8.95194e-21)
(-0.0594198 0.0599445 1.80934e-21)
(0.0173364 -0.0579461 -2.39248e-22)
(0.00712427 -0.0555364 1.08941e-20)
(-0.00866166 -0.0536766 -1.37163e-20)
(-0.0240217 -0.0477161 3.06112e-20)
(-0.0368456 -0.0375008 1.88559e-20)
(-0.0470166 -0.0250604 -1.90489e-20)
(-0.0548693 -0.0123438 1.89808e-20)
(-0.0607808 -0.000314493 -4.06339e-20)
(-0.064553 0.0112948 0)
(-0.0647599 0.0235315 0)
(-0.0602371 0.0360531 -8.53916e-21)
(-0.0491611 0.0484055 -2.04758e-21)
(-0.146126 0.0596654 1.16977e-21)
(-0.175756 0.0603359 1.14731e-20)
(-0.178264 0.0763267 0)
(-0.159192 0.0827847 0)
(-0.14014 0.0744405 4.02524e-20)
(-0.129912 0.0575965 -1.25823e-19)
(-0.128546 0.0419237 6.3998e-21)
(-0.132807 0.0338441 -6.73405e-21)
(-0.138106 0.0333125 -1.38697e-20)
(-0.141605 0.0368889 -4.81659e-20)
(-0.142374 0.0417967 -5.65224e-20)
(-0.13966 0.0472078 0)
(-0.0714993 0.0722882 5.28195e-21)
(-0.0760877 0.0655418 4.00015e-21)
(-0.0828005 0.0636173 2.68222e-20)
(-0.0804148 0.0585048 -7.54746e-20)
(-0.0737785 0.0466282 1.21886e-19)
(-0.0711723 0.0313075 -3.40584e-20)
(-0.0758045 0.0188134 0)
(-0.0849111 0.0125597 0)
(-0.0942859 0.011756 9.12175e-20)
(-0.101662 0.0136273 0)
(-0.106388 0.0162153 0)
(-0.107938 0.0195246 0)
(-0.0415317 0.0643705 6.71397e-22)
(-0.0293105 0.0613189 -2.18377e-20)
(-0.0239123 0.0553456 -3.13593e-20)
(-0.0210653 0.044925 2.79183e-20)
(-0.0209121 0.0303676 -1.73941e-19)
(-0.0258003 0.0153747 0)
(-0.0356758 0.00433933 -1.05454e-19)
(-0.0478713 -0.0012861 9.42854e-20)
(-0.0595706 -0.00313426 -4.86636e-20)
(-0.0693045 -0.00353964 -3.58825e-20)
(-0.0762881 -0.00378912 0)
(-0.0797161 -0.00332148 -1.78919e-20)
(-0.0328572 0.0537119 6.90214e-22)
(-0.0177119 0.0514788 8.91696e-21)
(-0.00706058 0.0450469 2.3197e-20)
(-0.000829184 0.0349787 5.03169e-21)
(0.000349122 0.022044 9.00765e-20)
(-0.00408874 0.00923028 8.75113e-20)
(-0.0132104 -0.000807758 1.14083e-20)
(-0.024785 -0.00721644 -8.44101e-21)
(-0.0366241 -0.0112199 0)
(-0.0475136 -0.0143707 0)
(-0.0561782 -0.0172822 0)
(-0.0597537 -0.0193666 1.67913e-20)
(-0.132413 0.0534574 0)
(-0.120269 0.0606538 -1.04933e-20)
(-0.104266 0.0682931 0)
(-0.0864217 0.0761894 -6.86274e-21)
(-0.0686817 0.0842541 -3.99156e-20)
(-0.0511139 0.0915471 4.27363e-20)
(-0.0324507 0.0967147 -2.66097e-20)
(-0.0130578 0.100171 0)
(0.00507295 0.104448 0)
(0.0218939 0.113475 0)
(0.0396433 0.124239 4.29843e-21)
(0.0858392 0.139645 4.26677e-21)
(-0.105452 0.0250485 1.13604e-21)
(-0.0986091 0.0334267 -1.01388e-20)
(-0.0878173 0.0432945 2.55205e-20)
(-0.0734186 0.0536113 1.74245e-20)
(-0.0573926 0.0638762 1.67097e-20)
(-0.0419045 0.0738143 -1.911e-20)
(-0.0269724 0.0825751 5.4408e-20)
(-0.0109245 0.0886415 -3.54107e-20)
(0.0071531 0.0913957 2.51699e-20)
(0.0270224 0.0917519 -1.91007e-20)
(0.0468443 0.0905904 -6.69555e-21)
(0.07607 0.0834179 -2.67756e-21)
(-0.0793625 0.000714315 -1.563e-23)
(-0.0760574 0.0102043 -1.15419e-20)
(-0.0701402 0.0223857 0)
(-0.0600375 0.0350342 -1.77668e-20)
(-0.0466221 0.0469985 -1.53719e-21)
(-0.032334 0.0577081 1.99965e-20)
(-0.0188015 0.0670611 -1.10081e-20)
(-0.0057202 0.0745336 6.50363e-20)
(0.00846808 0.0787667 -3.43311e-20)
(0.0249093 0.0779635 3.34345e-21)
(0.0418943 0.0725934 2.06006e-21)
(0.0595048 0.0598451 -2.00803e-21)
(-0.0578022 -0.0173627 2.00361e-21)
(-0.0553198 -0.007162 7.86889e-21)
(-0.0534537 0.00861687 0)
(-0.047518 0.0239534 3.02611e-20)
(-0.0373408 0.0367512 -1.60474e-20)
(-0.0249443 0.0469096 -1.82994e-20)
(-0.0122685 0.0547678 3.74412e-20)
(-0.000275265 0.0607003 -4.06207e-20)
(0.0112922 0.0645205 2.06177e-20)
(0.0234648 0.0648393 3.74476e-20)
(0.0358969 0.0605182 0)
(0.048144 0.0497 -9.87332e-26)
)
;

boundaryField
{
    rotor
    {
        type            movingWallVelocity;
        value           nonuniform List<vector> 
96
(
(-0.00410705 -0.125514 2.16842e-22)
(-0.0123073 -0.124977 8.67368e-22)
(-0.0204548 -0.123904 0)
(-0.0285147 -0.122301 -1.73474e-21)
(-0.0364525 -0.120174 -1.99491e-16)
(-0.0442342 -0.117533 1.99493e-16)
(-0.0518265 -0.114388 -5.98483e-16)
(-0.0591969 -0.110754 0)
(-0.0663138 -0.106645 1.99493e-16)
(-0.0731467 -0.102079 -3.46947e-21)
(-0.0796664 -0.0970767 0)
(-0.0858449 -0.0916584 -1.99497e-16)
(-0.0916559 -0.0858476 0)
(-0.0970743 -0.0796692 -1.99493e-16)
(-0.102077 -0.0731497 -3.98983e-16)
(-0.106643 -0.0663169 0)
(-0.110752 -0.0592001 0)
(-0.114387 -0.0518299 -3.98986e-16)
(-0.117531 -0.0442377 -1.99493e-16)
(-0.120173 -0.036456 1.73474e-21)
(-0.1223 -0.0285183 -1.73474e-21)
(-0.123903 -0.0204584 -1.99495e-16)
(-0.124976 -0.0123109 0)
(-0.125514 -0.00411074 -1.99494e-16)
(-0.125514 0.00410705 -4.33684e-22)
(-0.124977 0.0123073 1.99493e-16)
(-0.123904 0.0204548 -1.99493e-16)
(-0.122301 0.0285147 0)
(-0.120174 0.0364525 0)
(-0.117533 0.0442342 -1.99493e-16)
(-0.114388 0.0518265 -3.9899e-16)
(-0.110754 0.0591969 -1.99493e-16)
(-0.106645 0.0663138 1.99493e-16)
(-0.102079 0.0731467 -3.46947e-21)
(-0.0970767 0.0796664 0)
(-0.0916584 0.0858449 3.46947e-21)
(-0.0858476 0.0916559 0)
(-0.0796692 0.0970743 1.99497e-16)
(-0.0731497 0.102077 3.46947e-21)
(-0.0663169 0.106643 1.99493e-16)
(-0.0592001 0.110752 -1.9949e-16)
(-0.0518299 0.114387 -3.46947e-21)
(-0.0442377 0.117531 0)
(-0.036456 0.120173 0)
(-0.0285183 0.1223 0)
(-0.0204584 0.123903 0)
(-0.0123109 0.124976 3.98986e-16)
(-0.00411074 0.125514 -1.99493e-16)
(0.00182166 0.133501 -3.98986e-16)
(0.00203598 0.149207 -3.98986e-16)
(0.00225029 0.164914 1.99493e-16)
(0.00246461 0.18062 -3.98986e-16)
(0.00267892 0.196326 -3.98986e-16)
(0.00289323 0.212032 1.99493e-16)
(0.00310755 0.227738 -1.99493e-16)
(0.00332186 0.243444 0)
(0.00353617 0.25915 -1.99493e-16)
(0.00375049 0.274856 -1.99493e-16)
(0.0039648 0.290562 0)
(0.00417911 0.306268 -1.99493e-16)
(-0.00182167 -0.133501 -1.99493e-16)
(-0.00203598 -0.149207 -3.98986e-16)
(-0.00225029 -0.164914 -3.98986e-16)
(-0.00246461 -0.18062 -3.98986e-16)
(-0.00267892 -0.196326 -1.99493e-16)
(-0.00289323 -0.212032 -1.99493e-16)
(-0.00310755 -0.227738 -1.99493e-16)
(-0.00332186 -0.243444 -1.99493e-16)
(-0.00353617 -0.25915 -3.98986e-16)
(-0.00375049 -0.274856 -1.99493e-16)
(-0.0039648 -0.290562 -1.99493e-16)
(-0.00417911 -0.306268 -3.98986e-16)
(-0.133501 0.00182167 -3.98986e-16)
(-0.149207 0.00203598 1.99493e-16)
(-0.164914 0.00225029 1.99493e-16)
(-0.18062 0.00246461 -3.98986e-16)
(-0.196326 0.00267892 1.99493e-16)
(-0.212032 0.00289323 -1.0762e-38)
(-0.227738 0.00310755 -1.43493e-38)
(-0.243444 0.00332186 1.99493e-16)
(-0.25915 0.00353617 0)
(-0.274856 0.00375049 0)
(-0.290562 0.0039648 -1.99493e-16)
(-0.306268 0.00417911 1.99493e-16)
(-0.133501 0.00182167 0)
(-0.149207 0.00203598 1.99493e-16)
(-0.164914 0.00225029 1.99493e-16)
(-0.18062 0.00246461 -1.99493e-16)
(-0.196326 0.00267892 3.58732e-39)
(-0.212032 0.00289323 1.99493e-16)
(-0.227738 0.00310755 1.99493e-16)
(-0.243444 0.00332186 3.98986e-16)
(-0.25915 0.00353617 1.99493e-16)
(-0.274856 0.00375049 2.15239e-38)
(-0.290562 0.0039648 1.99493e-16)
(-0.306268 0.00417911 0)
)
;
    }
    stator
    {
        type            movingWallVelocity;
        value           nonuniform 0();
    }
    AMI1
    {
        type            cyclicAMI;
        value           nonuniform List<vector> 
48
(
(-0.0488016 -0.0298508 -4.9767e-22)
(-0.0468962 -0.0160541 5.22049e-21)
(-0.0410051 -0.00551373 -1.51255e-20)
(-0.031845 0.00126437 -1.12318e-20)
(-0.0202104 0.00336727 -9.78699e-21)
(-0.00842096 0.000110789 -3.80827e-20)
(0.00123557 -0.00772673 2.76868e-20)
(0.00800143 -0.0181165 -4.52669e-20)
(0.0128661 -0.029153 1.97294e-20)
(0.016823 -0.040052 -9.09237e-20)
(0.0203896 -0.0506115 1.56494e-20)
(0.0241556 -0.0567725 4.16424e-21)