/*--------------------------------*- C++ -*----------------------------------*\
| =========                 |                                                 |
| \\      /  F ield         | OpenFOAM: The Open Source CFD Toolbox           |
|  \\    /   O peration     | Version:  v1806                                 |
|   \\  /    A nd           | Web:      www.OpenFOAM.com                      |
|    \\/     M anipulation  |                                                 |
\*---------------------------------------------------------------------------*/
FoamFile
{
    version     2.0;
    format      ascii;
    class       surfaceVectorField;
    location    "1";
    object      Uf;
}
// * * * * * * * * * * * * * * * * * * * * * * * * * * * * * * * * * * * * * //

dimensions      [0 1 -1 0 0 0 0];


internalField   nonuniform List<vector> 
1460
(
(-0.0233667 -0.134115 2.4948e-20)
(-0.00779548 -0.141948 2.16223e-20)
(-0.0308832 -0.131948 2.00299e-20)
(-0.0130298 -0.141072 5.34345e-20)
(-0.0353031 -0.126511 1.92236e-19)
(-0.0159971 -0.137379 -9.687e-20)
(-0.040205 -0.119048 3.05402e-21)
(-0.0209028 -0.13131 -6.71654e-20)
(-0.0467251 -0.111945 -1.89883e-19)
(-0.0301013 -0.12482 -1.2316e-19)
(-0.0550523 -0.106399 -7.47414e-20)
(-0.0415519 -0.118387 1.9087e-19)
(-0.0644939 -0.101826 -7.47414e-20)
(-0.0522026 -0.113234 -2.01999e-19)
(-0.0744566 -0.0983852 -2.89101e-19)
(-0.0633331 -0.10919 2.45663e-19)
(-0.0845367 -0.0959856 7.31663e-20)
(-0.0747239 -0.106206 -5.40831e-19)
(-0.094089 -0.0942316 3.61254e-19)
(-0.0857344 -0.104308 2.31338e-19)
(-0.102164 -0.0924985 -4.76254e-19)
(-0.095545 -0.103393 1.15385e-19)
(-0.103292 -0.10295 -2.50339e-19)
(-0.107692 -0.0900991 -6.36356e-20)
(-0.00322174 -0.150964 4.9775e-20)
(-0.0104151 -0.154817 3.78173e-20)
(-0.00248574 -0.146257 -6.43222e-20)
(-0.00600122 -0.154906 3.42208e-20)
(-0.00647332 -0.14043 -3.60798e-19)
(-0.00904885 -0.150688 -7.42558e-20)
(-0.0157811 -0.135132 -1.96296e-19)
(-0.0184195 -0.145989 -9.81559e-20)
(-0.0283363 -0.129837 2.61297e-19)
(-0.0319128 -0.141696 -1.66289e-19)
(-0.0415712 -0.123763 6.62338e-20)
(-0.0460458 -0.137357 3.75723e-19)
(-0.0551336 -0.118713 1.22066e-19)
(-0.0616189 -0.131977 2.16286e-19)
(-0.0689357 -0.114674 -1.7868e-21)
(-0.0768272 -0.12589 2.17502e-20)
(-0.0822591 -0.111484 -3.76147e-19)
(-0.0907189 -0.119961 -3.69359e-20)
(-0.0940724 -0.109653 -7.55419e-21)
(-0.103278 -0.114938 -3.43112e-19)
(-0.103293 -0.109726 3.40275e-19)
(-0.113967 -0.111867 1.4728e-20)
(-0.122918 -0.111388 3.36127e-19)
(-0.110172 -0.111195 2.21962e-19)
(-0.00815868 -0.161931 2.21551e-20)
(-0.00651711 -0.169325 2.63271e-21)
(-0.00654988 -0.158148 2.93899e-20)
(-0.00227975 -0.171894 2.51859e-20)
(-0.0138569 -0.155553 2.06302e-19)
(-0.0105919 -0.171646 2.98364e-20)
(-0.0282124 -0.153434 -5.98157e-20)
(-0.0262706 -0.172102 1.79599e-19)
(-0.0454413 -0.15048 -6.0831e-20)
(-0.0443763 -0.171845 -2.41768e-19)
(-0.0631198 -0.146941 5.374e-19)
(-0.0627699 -0.169344 -1.25992e-19)
(-0.0795598 -0.141657 1.21317e-19)
(-0.0796973 -0.164415 4.6824e-19)
(-0.0943169 -0.135058 -1.47167e-20)
(-0.0954354 -0.15677 -1.46899e-19)
(-0.10749 -0.128258 -2.65065e-22)
(-0.109968 -0.147385 1.35529e-19)
(-0.119117 -0.122548 -3.1498e-19)
(-0.123446 -0.137684 -3.95758e-19)
(-0.129748 -0.118944 4.64171e-21)
(-0.135957 -0.12965 2.35466e-19)
(-0.149806 -0.124079 8.96678e-20)
(-0.142711 -0.117143 2.66398e-19)
(-0.00233316 -0.179769 5.14945e-21)
(-0.00563714 -0.187085 -3.14416e-20)
(-0.0068472 -0.181794 2.55744e-20)
(-0.00780111 -0.194831 2.59304e-20)
(-0.0233127 -0.185931 0)
(-0.0243681 -0.20099 4.0649e-20)
(-0.0434963 -0.189396 0)
(-0.0452649 -0.207715 0)
(-0.0630049 -0.19012 -3.10218e-19)
(-0.0651852 -0.211634 0)
(-0.0808402 -0.186822 -2.04907e-19)
(-0.0829562 -0.211 -3.14536e-19)
(-0.0973559 -0.179788 2.00327e-19)
(-0.0989243 -0.205436 3.08186e-20)
(-0.112693 -0.169705 3.62575e-21)
(-0.113743 -0.195514 1.79024e-20)
(-0.126971 -0.158015 -2.66748e-19)
(-0.128035 -0.182247 -5.67233e-21)
(-0.140729 -0.146479 1.63622e-19)
(-0.142429 -0.167158 -1.69517e-19)
(-0.156372 -0.136412 3.25438e-19)
(-0.158053 -0.151982 3.5209e-19)
(-0.177323 -0.137714 2.30774e-19)
(-0.176901 -0.128173 -3.68483e-19)
(-0.0102326 -0.200278 -1.14357e-20)
(-0.0111825 -0.204707 -1.1587e-20)
(-0.0242587 -0.210292 4.12229e-20)
(-0.0243544 -0.220403 3.55402e-20)
(-0.0460807 -0.221207 4.12229e-20)
(-0.0475192 -0.234012 -2.89818e-20)
(-0.0671684 -0.229314 0)
(-0.0702728 -0.246948 -6.2088e-20)
(-0.0855033 -0.232575 0)
(-0.0892257 -0.255374 6.1254e-20)
(-0.101407 -0.230027 -7.73939e-20)
(-0.104689 -0.257431 6.10057e-20)
(-0.115788 -0.22182 -1.56552e-19)
(-0.11819 -0.252278 4.30887e-20)
(-0.129502 -0.208779 8.83256e-21)
(-0.130842 -0.240298 -8.59635e-20)
(-0.143633 -0.192415 9.67052e-20)
(-0.143919 -0.222462 2.15491e-19)
(-0.159762 -0.174176 2.0065e-20)
(-0.158473 -0.200749 1.17457e-19)
(-0.17958 -0.155197 2.58215e-19)
(-0.175548 -0.177077 1.02059e-20)
(-0.195938 -0.152467 5.37641e-20)
(-0.202512 -0.137432 1.38809e-19)
(-0.0268541 -0.223832 3.59981e-20)
(-0.0256795 -0.221049 -7.09769e-21)
(-0.0490162 -0.241377 -3.34186e-20)
(-0.0492448 -0.245637 1.01673e-20)
(-0.0736898 -0.258547 -1.3344e-19)
(-0.0766974 -0.265524 -7.13854e-20)
(-0.0944823 -0.272196 -8.44779e-22)
(-0.0998045 -0.284147 4.22058e-20)
(-0.110426 -0.2798 1.23851e-19)
(-0.116102 -0.297594 -4.27647e-20)
(-0.122912 -0.279536 1.84857e-19)
(-0.127166 -0.303611 4.80803e-21)
(-0.13406 -0.270849 1.17148e-19)
(-0.136175 -0.300742 1.10962e-19)
(-0.145598 -0.254154 1.20882e-19)
(-0.145087 -0.288825 -3.01292e-20)
(-0.158913 -0.231305 2.38076e-19)
(-0.155872 -0.267738 2.08257e-19)
(-0.17524 -0.204797 1.10195e-19)
(-0.169284 -0.23876 -8.30816e-20)
(-0.194289 -0.175979 -1.936e-19)
(-0.184381 -0.205518 0)
(-0.201229 -0.170706 -3.71989e-20)
(-0.213282 -0.147434 -3.49335e-19)
(-0.0502935 -0.24579 -3.37604e-20)
(-0.0461124 -0.234655 4.92575e-21)
(-0.0791292 -0.268147 -2.65817e-20)
(-0.0777765 -0.265131 -2.3655e-20)
(-0.105539 -0.289933 1.03805e-19)
(-0.107705 -0.286673 0)
(-0.124395 -0.308309 5.70567e-22)
(-0.129117 -0.307084 2.11657e-20)
(-0.135791 -0.320508 -1.58349e-19)
(-0.140142 -0.322338 -1.00473e-19)
(-0.142763 -0.324221 -6.43748e-20)
(-0.144142 -0.330675 7.03576e-20)
(-0.149003 -0.318101 -2.84357e-20)
(-0.146553 -0.33098 -1.74322e-19)
(-0.157 -0.301502 6.12781e-20)
(-0.150565 -0.322964 -1.09941e-19)
(-0.167827 -0.274858 -1.14443e-19)
(-0.158439 -0.305134 -5.63183e-21)
(-0.181154 -0.239797 -1.93713e-19)
(-0.16958 -0.276177 -1.95869e-19)
(-0.19635 -0.201099 1.51659e-19)
(-0.182801 -0.236776 0)
(-0.194353 -0.193476 1.07822e-19)
(-0.209032 -0.162097 1.55232e-19)
(-0.0743128 -0.261486 1.54678e-20)
(-0.06538 -0.244418 1.68327e-20)
(-0.107063 -0.282401 3.09823e-21)
(-0.102513 -0.274557 5.12233e-21)
(-0.132234 -0.302367 -8.36046e-20)
(-0.132025 -0.290344 -3.16279e-20)
(-0.145703 -0.319481 -8.07767e-20)
(-0.148696 -0.305731 -5.19097e-20)
(-0.149482 -0.331623 1.29436e-19)
(-0.151506 -0.316648 -3.17301e-20)
(-0.149173 -0.337267 -4.02801e-20)
(-0.146676 -0.322763 2.04303e-19)
(-0.149931 -0.335318 -2.52074e-19)
(-0.142083 -0.324416 -1.6672e-19)
(-0.15459 -0.325131 -1.64729e-19)
(-0.142095 -0.321118 -1.4875e-19)
(-0.163312 -0.304882 -7.94695e-20)
(-0.147652 -0.31111 3.51988e-20)
(-0.174601 -0.273083 0)
(-0.157479 -0.291728 4.39646e-20)
(-0.185541 -0.230304 -4.60361e-20)
(-0.169005 -0.260422 0)
(-0.178922 -0.218261 -7.22601e-20)
(-0.193594 -0.183414 6.20847e-20)
(-0.0924786 -0.268993 6.94825e-21)
(-0.0759664 -0.250148 3.01632e-21)
(-0.125798 -0.280765 -2.90877e-20)
(-0.116428 -0.274592 1.7577e-20)
(-0.146395 -0.291421 2.95542e-21)
(-0.142851 -0.277721 -3.18607e-21)
(-0.151922 -0.300617 -3.65544e-21)
(-0.152998 -0.283096 -2.83295e-20)
(-0.146746 -0.307306 4.13132e-20)
(-0.14697 -0.286208 3.70961e-20)
(-0.139008 -0.310889 7.56565e-20)
(-0.134398 -0.288328 -1.01819e-19)
(-0.134798 -0.310945 -6.06049e-20)
(-0.124952 -0.290157 7.63483e-20)
(-0.13656 -0.306782 5.60764e-20)
(-0.122251 -0.289391 -4.74911e-21)
(-0.144051 -0.29681 1.61143e-19)
(-0.126041 -0.28418 1.11329e-19)
(-0.155056 -0.278551 4.4428e-20)
(-0.134723 -0.27339 -4.33387e-20)
(-0.165749 -0.249157 -2.60151e-20)
(-0.145565 -0.255252 0)
(-0.1554 -0.227605 5.96204e-20)
(-0.17227 -0.208422 -8.19656e-20)
(-0.0990454 -0.270691 1.45226e-20)
(-0.0738231 -0.254756 -9.04893e-21)
(-0.130916 -0.268508 4.73007e-20)
(-0.116463 -0.267249 2.69276e-20)
(-0.146828 -0.264974 -3.43436e-20)
(-0.138454 -0.256474 2.01044e-21)
(-0.145535 -0.264295 3.63338e-21)
(-0.144165 -0.249378 -6.62794e-20)
(-0.133369 -0.266843 -1.05437e-19)
(-0.133396 -0.244884 8.33285e-20)
(-0.120352 -0.270232 -9.72242e-20)
(-0.116648 -0.244582 -1.17257e-19)
(-0.112378 -0.27142 1.34115e-19)
(-0.103506 -0.247343 1.33977e-19)
(-0.111096 -0.268781 5.02102e-20)
(-0.0976878 -0.248734 8.80674e-21)
(-0.116128 -0.262174 -1.04075e-19)
(-0.0993728 -0.246109 1.04482e-19)
(-0.125465 -0.251293 -9.09064e-20)
(-0.106382 -0.238956 -1.01115e-19)
(-0.136198 -0.234838 8.58341e-20)
(-0.115845 -0.227265 -6.49513e-20)
(-0.12528 -0.210398 6.45895e-20)
(-0.144952 -0.210813 1.05279e-19)
(-0.0939901 -0.268332 3.72094e-21)
(-0.0574707 -0.27003 -7.25035e-21)
(-0.124389 -0.250583 -1.64631e-20)
(-0.103786 -0.262445 1.87115e-20)
(-0.135294 -0.234453 -2.98841e-20)
(-0.12342 -0.237195 -3.02126e-20)
(-0.131207 -0.224232 6.33748e-21)
(-0.126979 -0.215599 -2.09464e-20)
(-0.116694 -0.222137 7.23624e-20)
(-0.115315 -0.202991 3.7058e-20)
(-0.10064 -0.22499 1.25467e-19)
(-0.0970645 -0.199368 6.7586e-20)
(-0.0893801 -0.228039 5.29746e-21)
(-0.0810881 -0.201397 -4.22232e-20)
(-0.0855493 -0.228353 6.10014e-20)
(-0.0726958 -0.204508 -1.35988e-19)
(-0.0883988 -0.224858 1.03549e-19)
(-0.0725745 -0.205264 -4.23726e-20)
(-0.0952205 -0.217183 -7.68907e-20)
(-0.0777403 -0.202239 1.90502e-20)
(-0.103513 -0.205093 -9.62088e-20)
(-0.0850477 -0.195122 8.18103e-21)
(-0.0927796 -0.183589 -4.34517e-20)
(-0.111708 -0.188546 -3.88998e-20)
(-0.063844 -0.283012 7.77576e-21)
(-0.0382028 -0.215447 1.20596e-21)
(-0.104255 -0.244135 7.17875e-21)
(-0.0719992 -0.220365 7.84176e-21)
(-0.116798 -0.210989 -2.40601e-20)
(-0.0936877 -0.204271 1.34787e-20)
(-0.112492 -0.188963 1.21099e-21)
(-0.100541 -0.1795 -4.45979e-21)
(-0.0973719 -0.179064 2.75183e-20)
(-0.0912886 -0.161014 4.88613e-20)
(-0.0790795 -0.177717 -1.06912e-19)
(-0.0731964 -0.152777 4.42863e-20)
(-0.065146 -0.180307 -1.85198e-19)
(-0.0562012 -0.152616 -1.03969e-19)
(-0.0595267 -0.182995 -2.45837e-19)
(-0.0469829 -0.156677 -4.4317e-20)
(-0.0611704 -0.183642 -1.33473e-19)
(-0.0461787 -0.160651 -7.87811e-20)
(-0.0667143 -0.181236 1.08581e-19)
(-0.0502447 -0.16217 4.61843e-20)
(-0.0734627 -0.174925 6.57458e-20)
(-0.0560035 -0.160509 3.76645e-20)
(-0.0801838 -0.163835 -2.4653e-20)
(-0.0621508 -0.154937 5.27575e-22)
(-0.110342 -0.0865903 1.42849e-19)
(-0.109369 -0.101989 4.26174e-19)
(-0.11183 -0.0816251 -7.74608e-20)
(-0.115945 -0.0987614 -1.71759e-19)
(-0.113343 -0.0744865 1.89716e-19)
(-0.122723 -0.0937681 8.25402e-20)
(-0.113446 -0.0648996 6.00597e-20)
(-0.126772 -0.0886845 0)
(-0.111461 -0.0541468 6.00597e-20)
(-0.128054 -0.0815072 9.87744e-20)
(-0.108112 -0.0432569 -1.76693e-19)
(-0.12759 -0.0717527 -9.32081e-20)
(-0.105305 -0.0322858 8.55551e-20)
(-0.126355 -0.0590653 -1.26344e-19)
(-0.105226 -0.0211633 1.18977e-19)
(-0.125033 -0.0432104 4.23659e-19)
(-0.109034 -0.00992164 -2.32946e-19)
(-0.124347 -0.0259338 -2.55082e-19)
(-0.116797 0.00143493 -2.68621e-20)
(-0.125645 -0.00915439 -8.81384e-20)
(-0.126658 0.010278 6.53616e-20)
(-0.13113 0.00432331 3.54156e-20)
(-0.135256 0.00879883 1.71605e-20)
(-0.118293 -0.111619 1.00216e-19)
(-0.133452 -0.112023 1.73142e-19)
(-0.129562 -0.109376 -5.18904e-21)
(-0.147741 -0.110974 -1.41203e-19)
(-0.139388 -0.106175 -1.07476e-19)
(-0.160818 -0.110123 -1.09273e-19)
(-0.144449 -0.102473 4.24134e-20)
(-0.168839 -0.111252 1.49578e-19)
(-0.146018 -0.0959945 -5.25607e-20)
(-0.173886 -0.109753 -1.78239e-19)
(-0.145304 -0.0848439 -4.21092e-20)
(-0.176753 -0.103884 -2.21334e-20)
(-0.143722 -0.0685527 2.10088e-19)
(-0.177431 -0.0911514 1.21703e-19)
(-0.142453 -0.0480383 5.3538e-20)
(-0.175386 -0.0708903 1.21505e-19)
(-0.142199 -0.0255663 -1.0795e-19)
(-0.169865 -0.0456067 -1.09756e-19)
(-0.144729 -0.00434242 -2.47671e-20)
(-0.162097 -0.0169471 0)
(-0.148103 0.00793112 -1.01325e-20)
(-0.156894 0.0049902 -4.52772e-20)
(-0.152121 0.00989019 3.24814e-20)
(-0.160573 -0.116108 -9.18613e-20)
(-0.168582 -0.120341 -1.79951e-19)
(-0.178296 -0.116127 -2.57706e-19)
(-0.189028 -0.119078 -2.53964e-19)
(-0.190502 -0.117939 1.52122e-19)
(-0.204522 -0.121783 5.28149e-21)
(-0.198408 -0.120044 -7.46482e-20)
(-0.215394 -0.126664 2.68036e-19)
(-0.204148 -0.118876 -1.49934e-19)
(-0.224334 -0.129167 -2.31145e-19)
(-0.206742 -0.110836 1.46862e-19)
(-0.230217 -0.129381 -2.79699e-20)
(-0.205641 -0.0944022 2.82696e-20)
(-0.232973 -0.122232 6.23546e-20)
(-0.200106 -0.0694266 -4.08404e-20)
(-0.230409 -0.106033 -9.00231e-20)
(-0.191305 -0.0392332 0)
(-0.220519 -0.0796591 0)
(-0.181004 -0.0112804 -2.04377e-20)
(-0.203136 -0.0448288 -2.93134e-20)
(-0.171034 0.00358645 2.811e-21)
(-0.182878 -0.0140785 2.66925e-20)
(-0.167302 0.000369065 1.21181e-20)
(-0.199823 -0.123212 -3.43518e-19)
(-0.200572 -0.125944 -4.6411e-19)
(-0.218565 -0.12347 1.50923e-20)
(-0.221103 -0.120255 1.54872e-20)
(-0.231979 -0.128181 1.20394e-19)
(-0.235003 -0.121353 1.05345e-20)
(-0.242849 -0.133962 1.15355e-19)
(-0.245614 -0.126272 2.0517e-19)
(-0.25139 -0.137333 -1.08552e-19)
(-0.255057 -0.13195 -3.81328e-20)
(-0.257284 -0.136609 -1.11919e-19)
(-0.262961 -0.136856 -1.10063e-19)
(-0.258018 -0.128929 -5.02306e-20)
(-0.268281 -0.138372 1.20968e-19)
(-0.251225 -0.111355 -4.93114e-20)
(-0.268817 -0.133679 -3.39528e-21)
(-0.235114 -0.0825677 -2.97656e-20)
(-0.261016 -0.119154 -7.38185e-20)
(-0.210529 -0.0461507 1.97299e-20)
(-0.242246 -0.0915866 -3.018e-20)
(-0.187868 -0.0154864 3.75067e-20)
(-0.213947 -0.051088 4.88432e-20)
(-0.184706 -0.0107018 -2.161e-20)
(-0.223293 -0.124384 -9.42421e-20)
(-0.217013 -0.13078 -2.60507e-19)
(-0.237832 -0.118828 1.28935e-20)
(-0.232182 -0.11713 2.17158e-20)
(-0.248152 -0.119777 9.34906e-20)
(-0.2404 -0.111698 5.23521e-21)
(-0.257362 -0.12457 5.07831e-20)
(-0.246201 -0.111659 9.06033e-20)
(-0.265969 -0.131242 -3.86711e-20)
(-0.251746 -0.115293 -2.49961e-21)
(-0.273512 -0.137771 1.22353e-19)
(-0.257744 -0.121738 6.71653e-20)
(-0.278748 -0.141643 1.67874e-19)
(-0.264757 -0.129056 2.34087e-20)
(-0.27909 -0.139717 -3.00957e-20)
(-0.271082 -0.134955 4.95122e-20)
(-0.270086 -0.12692 -7.48607e-20)
(-0.273215 -0.136928 -7.2227e-20)
(-0.247218 -0.0968153 0)
(-0.266394 -0.129634 -1.43445e-20)
(-0.213878 -0.0475089 -1.28011e-20)
(-0.247776 -0.100792 2.25354e-20)
(-0.216152 -0.0351343 -1.68088e-20)
(-0.227202 -0.124175 -1.39386e-19)
(-0.21622 -0.13876 -1.39134e-19)
(-0.23414 -0.109906 1.40866e-20)
(-0.224085 -0.115773 1.91159e-20)
(-0.237078 -0.103616 0)
(-0.225222 -0.102426 3.30954e-21)
(-0.239184 -0.102735 3.86063e-20)
(-0.224409 -0.0961604 5.1571e-20)
(-0.242295 -0.106081 1.06646e-19)
(-0.224073 -0.0947992 3.90666e-20)
(-0.247866 -0.113123 -3.3663e-20)
(-0.225901 -0.0972931 6.88507e-20)
(-0.255922 -0.122569 -9.83922e-20)
(-0.230985 -0.103222 -7.9164e-20)
(-0.264783 -0.132705 8.70298e-21)
(-0.239837 -0.112165 8.57677e-21)
(-0.271013 -0.139952 -1.01969e-20)
(-0.250339 -0.122999 2.16196e-20)
(-0.267755 -0.1328 9.07004e-21)
(-0.258361 -0.133596 -3.0437e-20)
(-0.244879 -0.0882367 2.1851e-20)
(-0.26097 -0.132473 1.78237e-20)
(-0.252846 -0.0759365 4.1815e-21)
(-0.215437 -0.12872 9.1829e-21)
(-0.202975 -0.152357 1.2058e-19)
(-0.215216 -0.105491 -1.96256e-21)
(-0.204816 -0.120165 -8.10473e-20)
(-0.211991 -0.0922155 5.10843e-20)
(-0.200991 -0.098349 3.38676e-21)
(-0.208783 -0.086075 5.21935e-20)
(-0.19594 -0.0857256 4.61262e-20)
(-0.207098 -0.0848097 0)
(-0.192245 -0.0801409 6.83756e-21)
(-0.208103 -0.087022 2.49579e-20)
(-0.191428 -0.0794236 2.81823e-20)
(-0.214018 -0.092571 2.92721e-20)
(-0.194554 -0.0809664 -1.68134e-20)
(-0.2245 -0.10216 2.18088e-20)
(-0.202613 -0.0866669 1.78674e-20)
(-0.238981 -0.117369 1.51917e-21)
(-0.214924 -0.0957915 -3.21583e-21)
(-0.254523 -0.134035 -2.12634e-20)
(-0.229671 -0.109833 -1.8456e-21)
(-0.257267 -0.119969 -8.5235e-22)
(-0.245867 -0.129271 -3.04092e-21)
(-0.271657 -0.10958 4.94013e-21)
(-0.194963 -0.140958 2.79732e-20)
(-0.184164 -0.172514 5.04924e-20)
(-0.19057 -0.109171 -7.28468e-20)
(-0.182616 -0.131966 -5.42438e-20)
(-0.18434 -0.0885772 -6.72285e-21)
(-0.176177 -0.101241 2.70566e-20)
(-0.179146 -0.0770998 -2.14097e-21)
(-0.16915 -0.0812085 -2.50109e-20)
(-0.176726 -0.0722117 3.54139e-20)
(-0.164619 -0.0703137 1.30078e-21)
(-0.178092 -0.0717081 -1.46201e-20)
(-0.164127 -0.0658973 5.55714e-20)
(-0.183024 -0.0739162 -2.91562e-20)
(-0.167966 -0.065277 -4.86965e-20)
(-0.192687 -0.0789989 -6.6077e-21)
(-0.176043 -0.0675527 1.89496e-20)
(-0.206917 -0.0880717 -3.63647e-21)
(-0.188254 -0.0734232 -2.98804e-20)
(-0.22601 -0.106747 2.04674e-20)
(-0.2049 -0.0839331 2.42017e-20)
(-0.247327 -0.119003 -8.10893e-22)
(-0.223945 -0.104642 5.34153e-21)
(-0.269393 -0.113857 -1.98476e-21)
(-0.17248 -0.162629 -3.53807e-20)
(-0.161124 -0.190695 -3.31765e-20)
(-0.167197 -0.121681 3.98982e-20)
(-0.160798 -0.150215 3.66315e-20)
(-0.159892 -0.0916287 1.1585e-20)
(-0.155215 -0.112982 2.247e-20)
(-0.153961 -0.0728567 -2.10395e-20)
(-0.147694 -0.0841899 -2.57449e-21)
(-0.151733 -0.0629596 1.84948e-20)
(-0.142375 -0.0654071 -1.52938e-20)
(-0.154105 -0.0588003 2.13642e-20)
(-0.141744 -0.0553212 2.8168e-20)
(-0.16088 -0.0581492 -5.31637e-22)
(-0.14643 -0.0511359 -1.08328e-20)
(-0.171907 -0.0606082 -2.41262e-21)
(-0.155963 -0.0505747 -3.48236e-21)
(-0.187749 -0.067126 -1.10548e-21)
(-0.169828 -0.0530816 -6.93712e-22)
(-0.20828 -0.0800009 6.06922e-21)
(-0.188957 -0.0604019 1.25267e-20)
(-0.236258 -0.0963069 2.89611e-21)
(-0.211248 -0.075851 -1.11829e-21)
(-0.258914 -0.091958 2.14514e-21)
(-0.148743 -0.178497 4.05362e-20)
(-0.132571 -0.18738 1.67124e-20)
(-0.146892 -0.141169 1.45549e-20)
(-0.135986 -0.158544 1.62249e-20)
(-0.141191 -0.105035 7.05099e-21)
(-0.134997 -0.126309 -1.57053e-20)
(-0.135083 -0.0761024 8.04041e-21)
(-0.130826 -0.0948345 1.41518e-20)
(-0.131942 -0.0571283 -7.91614e-21)
(-0.126275 -0.0684023 -2.20901e-20)
(-0.133913 -0.0470674 -3.79534e-21)
(-0.124515 -0.0497537 -5.90673e-21)
(-0.141446 -0.0429349 -1.20232e-20)
(-0.127923 -0.0389399 6.94118e-21)
(-0.154065 -0.0423614 -6.56797e-22)
(-0.137281 -0.0340453 -5.04446e-21)
(-0.171666 -0.0450042 1.48949e-20)
(-0.152214 -0.0330843 1.52479e-21)
(-0.196607 -0.0537125 4.61734e-21)
(-0.173721 -0.0349346 2.19668e-21)
(-0.230172 -0.0658641 -2.02605e-21)
(-0.199997 -0.0443416 -6.96096e-21)
(-0.247917 -0.0522456 -5.14933e-21)
(-0.118497 -0.167799 -1.55862e-20)
(-0.100132 -0.167537 -1.49043e-20)
(-0.122555 -0.143309 -2.00977e-20)
(-0.106302 -0.147588 -7.14401e-21)
(-0.123113 -0.115755 -1.147e-20)
(-0.110482 -0.124794 -2.14837e-21)
(-0.120885 -0.0870774 -1.49063e-20)
(-0.112363 -0.100115 -1.66164e-20)
(-0.118173 -0.0609926 -1.97021e-20)
(-0.112383 -0.0748511 2.08206e-20)
(-0.118171 -0.0413764 5.00089e-21)
(-0.111977 -0.051446 -8.47352e-21)
(-0.12348 -0.0295274 1.49887e-20)
(-0.113616 -0.0328297 4.31985e-21)
(-0.13533 -0.0238886 -3.6812e-21)
(-0.119976 -0.0203842 1.00175e-20)
(-0.154264 -0.0220123 -1.37423e-20)
(-0.13273 -0.0132305 -1.37418e-20)
(-0.180961 -0.0238059 -8.60149e-21)
(-0.153793 -0.00936524 -1.21829e-20)
(-0.221706 -0.0259802 -1.01106e-20)
(-0.181756 -0.00858884 3.94076e-21)
(-0.23752 0.00484223 1.12656e-21)
(-0.0866227 -0.148057 -1.18326e-20)
(-0.0686338 -0.144607 -1.2488e-20)
(-0.0927907 -0.129123 6.87967e-21)
(-0.0755177 -0.12971 2.61111e-22)
(-0.0984221 -0.108774 -9.1387e-21)
(-0.0824606 -0.11179 1.29464e-20)
(-0.102872 -0.0875524 1.90569e-20)
(-0.0890521 -0.0925655 2.47225e-20)
(-0.105527 -0.0652684 3.16054e-20)
(-0.0948201 -0.0728286 1.8715e-20)
(-0.106963 -0.0430463 -8.62432e-21)
(-0.099193 -0.0525115 1.92017e-20)
(-0.109657 -0.0237831 -3.24015e-22)
(-0.102346 -0.0321964 -1.23612e-20)
(-0.116887 -0.00968543 -3.02337e-22)
(-0.106171 -0.0138596 5.35167e-21)
(-0.131645 5.19297e-05 -1.21686e-20)
(-0.113475 0.00111745 1.66948e-22)
(-0.15795 0.00863751 9.11366e-22)
(-0.128018 0.0145079 -5.93235e-21)
(-0.206875 0.0310819 1.77085e-20)
(-0.148099 0.0318261 8.57501e-21)
(-0.187222 0.0837364 4.111e-21)
(-0.133989 0.0237543 -9.81224e-21)
(-0.14069 0.00758339 -9.9947e-21)
(-0.132042 0.0310489 0)
(-0.141016 0.0133919 6.60592e-20)
(-0.126374 0.0347311 0)
(-0.13717 0.015341 -6.45867e-20)
(-0.118716 0.0397445 0)
(-0.131151 0.0205296 1.27782e-19)
(-0.111548 0.0464418 2.99877e-19)
(-0.124542 0.0299674 -1.27403e-19)
(-0.106035 0.0548884 -3.70415e-19)
(-0.118017 0.041536 5.19764e-20)
(-0.10153 0.0643886 -3.73441e-19)
(-0.112888 0.0522083 -3.03238e-19)
(-0.0981874 0.0743934 8.04629e-21)
(-0.108919 0.0633985 1.79166e-19)
(-0.0958868 0.0845158 -3.53595e-19)
(-0.106031 0.0748338 -4.14124e-19)
(-0.0942163 0.0940988 8.50625e-20)
(-0.104239 0.0858675 -6.72401e-20)
(-0.092542 0.102175 2.18998e-19)
(-0.103425 0.0956718 1.73149e-19)
(-0.103072 0.103388 3.00468e-19)
(-0.0901772 0.107659 -6.05171e-20)
(-0.150821 0.00310475 6.73108e-20)
(-0.154457 0.0100193 3.60381e-20)
(-0.145841 0.00230245 2.33003e-21)
(-0.154771 0.00587998 3.97336e-20)
(-0.140155 0.00617124 6.43927e-20)
(-0.150503 0.00862529 -6.6911e-20)
(-0.134863 0.0156579 1.36265e-21)
(-0.145855 0.0181438 2.48112e-19)
(-0.129535 0.028386 -3.88097e-19)
(-0.141521 0.0318502 -3.66221e-19)
(-0.123423 0.0417054 1.27254e-19)
(-0.137118 0.0460785 -2.59935e-19)
(-0.118432 0.0553473 2.61727e-19)
(-0.131665 0.0618002 4.73526e-20)
(-0.114445 0.0692027 -2.47761e-19)
(-0.125603 0.0770231 2.12297e-19)
(-0.111332 0.0825498 -1.22436e-19)
(-0.11974 0.090957 -3.48458e-19)
(-0.109615 0.0943513 5.7228e-21)
(-0.114816 0.103553 3.18397e-19)
(-0.109832 0.103521 2.4283e-19)
(-0.111886 0.11425 1.10311e-19)
(-0.111566 0.123257 4.56529e-20)
(-0.111407 0.110412 3.50075e-19)
(-0.161986 0.00786463 6.80029e-21)
(-0.169305 0.00621787 4.27573e-20)
(-0.158095 0.00621621 -2.9191e-20)
(-0.171926 0.00199939 -2.96345e-20)
(-0.155536 0.0135448 1.177e-19)
(-0.171657 0.0102635 0)
(-0.153376 0.0280638 -1.19098e-19)
(-0.172083 0.0260189 -3.27723e-20)
(-0.150323 0.0454377 -2.36691e-19)
(-0.171693 0.0442415 -1.39796e-19)
(-0.146725 0.0632107 -3.55826e-19)
(-0.169044 0.0627452 1.08286e-19)
(-0.141384 0.0796908 -3.07508e-21)
(-0.164004 0.0797715 -4.60125e-19)
(-0.134798 0.094493 1.36995e-19)
(-0.156322 0.0955904 6.43655e-19)
(-0.12807 0.107723 1.08963e-19)
(-0.146961 0.110227 -3.13658e-19)
(-0.122479 0.119403 4.18913e-19)
(-0.137359 0.123793 2.3839e-19)
(-0.119021 0.130144 -1.02969e-19)
(-0.129476 0.136418 9.65465e-20)
(-0.124056 0.150533 -1.98969e-19)
(-0.117325 0.143421 -1.95991e-19)
(-0.17983 0.00202981 5.81467e-21)
(-0.187175 0.0054186 -1.6678e-20)
(-0.181841 0.00656918 0)
(-0.194874 0.00750668 2.15745e-20)
(-0.185943 0.0230778 -1.5461e-19)
(-0.201006 0.0240096 -4.06709e-20)
(-0.18927 0.0432874 -5.25102e-20)
(-0.207637 0.0448361 -1.13003e-19)
(-0.189818 0.0628487 2.09081e-19)
(-0.211361 0.0648073 2.18614e-20)
(-0.18636 0.0807882 7.84043e-21)
(-0.210505 0.0827001 2.67687e-19)
(-0.17922 0.0974295 1.90468e-19)
(-0.204771 0.0988209 -1.4541e-20)
(-0.169121 0.112885 1.91613e-19)
(-0.194774 0.113805 5.25022e-20)
(-0.157493 0.127277 -1.87728e-19)
(-0.181514 0.128278 6.05763e-20)
(-0.146088 0.141195 -9.24306e-20)
(-0.166503 0.142863 -9.37174e-20)
(-0.136164 0.157139 0)
(-0.151458 0.158747 0)
(-0.137334 0.178367 2.29094e-19)
(-0.128077 0.178027 1.35072e-19)
(-0.200321 0.0100015 -1.85916e-21)
(-0.204765 0.0110121 -3.30474e-20)
(-0.21032 0.0238883 -1.9366e-20)
(-0.220412 0.0240233 -1.13928e-20)
(-0.22112 0.0455751 2.99803e-21)
(-0.233979 0.0469853 -4.88935e-21)
(-0.22906 0.0666206 -4.01271e-20)
(-0.246788 0.069611 4.48114e-20)
(-0.232105 0.0850301 7.81404e-20)
(-0.255005 0.0885838 -1.46846e-19)
(-0.229338 0.101095 2.48462e-19)
(-0.2568 0.104188 9.44592e-20)
(-0.220977 0.115685 -1.57251e-19)
(-0.251392 0.117911 -1.63355e-19)
(-0.207884 0.12962 -8.3443e-20)
(-0.239244 0.130814 -1.16967e-19)
(-0.191548 0.143981 1.5942e-19)
(-0.22138 0.144152 1.61468e-19)
(-0.173408 0.160423 0)
(-0.199699 0.159017 2.2228e-19)
(-0.154561 0.180588 2.32328e-19)
(-0.176144 0.176418 -2.15936e-19)
(-0.151706 0.197052 4.05089e-19)
(-0.136995 0.203682 1.1201e-19)
(-0.223846 0.0265516 -4.36188e-20)
(-0.221083 0.0255137 -9.74049e-21)
(-0.24135 0.0484843 2.28122e-21)
(-0.245632 0.0488371 2.42775e-20)
(-0.25843 0.0729681 3.62707e-20)
(-0.265524 0.0760308 5.9674e-20)
(-0.271916 0.0936838 -6.21905e-20)
(-0.28408 0.0989606 0)
(-0.279273 0.109703 -1.31596e-19)
(-0.297371 0.115253 -5.05846e-21)
(-0.27872 0.122389 -3.2255e-19)
(-0.30314 0.126485 2.59645e-20)
(-0.269753 0.133809 -1.23647e-19)
(-0.299969 0.13577 -4.71345e-20)
(-0.252916 0.145671 1.30518e-19)
(-0.287709 0.145061 2.224e-19)
(-0.230075 0.159357 2.25172e-19)
(-0.266346 0.156183 0)
(-0.203594 0.176031 3.15299e-21)
(-0.237278 0.169832 2.06416e-19)
(-0.174944 0.195327 -3.74822e-20)
(-0.204113 0.185284 -2.21354e-19)
(-0.169608 0.202222 8.55634e-20)
(-0.146653 0.214239 7.15593e-20)
(-0.245801 0.0499865 5.83596e-20)
(-0.234679 0.0459472 -5.78111e-21)
(-0.26818 0.0785643 8.22597e-20)
(-0.265164 0.077368 5.90053e-20)
(-0.289975 0.10475 2.3248e-20)
(-0.286801 0.10703 -2.23381e-20)
(-0.308291 0.123506 5.49638e-20)
(-0.30726 0.128245 0)
(-0.320329 0.134987 1.52322e-19)
(-0.322492 0.139266 1.39111e-20)
(-0.323779 0.142204 3.04402e-19)
(-0.330713 0.143473 4.51451e-20)
(-0.317305 0.148771 2.98459e-19)
(-0.330803 0.146204 2.01595e-19)
(-0.300299 0.157107 9.14158e-20)
(-0.322427 0.150611 7.62427e-20)
(-0.273321 0.168236 -1.84483e-20)
(-0.304104 0.158823 -1.40797e-19)
(-0.238135 0.181765 -1.84483e-20)
(-0.274708 0.17016 -2.92267e-20)
(-0.199786 0.197241 -8.32385e-20)
(-0.234812 0.183831 -1.1218e-19)
(-0.192006 0.194998 -8.74647e-20)
(-0.161001 0.2097 -2.15007e-19)
(-0.261519 0.0740463 -5.84994e-21)
(-0.244446 0.0652397 8.55446e-21)
(-0.282535 0.106557 -4.53952e-20)
(-0.27463 0.102185 0)
(-0.302622 0.131502 -4.53952e-20)
(-0.290582 0.13145 -4.58687e-20)
(-0.319826 0.144885 -4.21332e-20)
(-0.306094 0.147939 3.30148e-20)
(-0.331983 0.14879 -9.41873e-20)
(-0.317097 0.150773 2.83961e-20)
(-0.337534 0.14878 -5.5223e-20)
(-0.323241 0.146193 -2.05238e-19)
(-0.335356 0.149912 -1.54651e-20)
(-0.324837 0.141949 2.77137e-22)
(-0.324758 0.154925 -1.53166e-19)
(-0.321338 0.142328 5.94222e-20)
(-0.303963 0.1639 -1.44503e-19)
(-0.310952 0.148196 -1.43867e-19)
(-0.271697 0.175329 -1.20302e-19)
(-0.291003 0.158231 1.54495e-20)
(-0.22845 0.186073 -1.1678e-19)
(-0.258979 0.169819 -9.73671e-20)
(-0.216531 0.179511 -9.18901e-21)
(-0.181873 0.193999 8.63614e-20)
(-0.269041 0.0922776 1.49225e-20)
(-0.250191 0.0758659 1.39739e-20)
(-0.280941 0.125398 0)
(-0.27468 0.1162 1.44734e-20)
(-0.291764 0.145792 3.33628e-20)
(-0.278013 0.142409 -1.42439e-20)
(-0.301106 0.151262 1.0508e-19)
(-0.283535 0.152385 3.41816e-20)
(-0.307887 0.146249 -8.63251e-20)
(-0.286763 0.146405 -1.30851e-19)
(-0.311497 0.138821 -1.49419e-19)
(-0.288949 0.134104 -1.23207e-19)
(-0.311499 0.134971 7.99794e-20)
(-0.290754 0.124999 -6.18387e-20)
(-0.307151 0.137067 7.07328e-20)
(-0.28987 0.122616 7.78885e-20)
(-0.296823 0.144817 1.15368e-20)
(-0.284459 0.126675 9.55257e-20)
(-0.278002 0.155935 2.35043e-20)
(-0.273349 0.135519 1.28372e-19)
(-0.247945 0.16644 1.38553e-20)
(-0.254723 0.146365 1.2085e-20)
(-0.226567 0.155984 1.35389e-20)
(-0.20685 0.172597 -3.55089e-20)
(-0.270746 0.0988979 1.31641e-20)
(-0.254811 0.0737671 -9.05868e-21)
(-0.2687 0.130628 2.36652e-21)
(-0.267363 0.116342 1.47523e-20)
(-0.265359 0.146362 -1.53511e-20)
(-0.256798 0.138158 -3.35625e-20)
(-0.264852 0.145019 -2.02539e-19)
(-0.249862 0.143706 1.82504e-20)
(-0.267488 0.13301 -1.70553e-19)
(-0.245496 0.132969 -1.49782e-19)
(-0.270837 0.120263 -3.11987e-20)
(-0.245252 0.116428 6.78678e-20)
(-0.271913 0.112587 -5.28975e-20)
(-0.247951 0.103579 -6.85752e-20)
(-0.269144 0.111591 1.02998e-19)
(-0.249196 0.0980637 1.03971e-19)
(-0.262385 0.116843 2.16041e-19)
(-0.246387 0.09999 -1.04629e-19)
(-0.251277 0.126284 1.19569e-19)
(-0.239035 0.107128 6.54725e-21)
(-0.234473 0.136931 1.65011e-20)
(-0.227115 0.116584 -3.90018e-20)
(-0.209978 0.125862 1.6654e-20)
(-0.210053 0.145405 2.81615e-20)
(-0.268412 0.0939459 -7.1974e-21)
(-0.27012 0.0574807 -7.26059e-21)
(-0.250805 0.124248 -1.92223e-20)
(-0.262613 0.103779 0)
(-0.234859 0.134997 1.83027e-22)
(-0.237534 0.123258 1.36183e-21)
(-0.224834 0.130839 7.32591e-20)
(-0.216097 0.126674 -6.67146e-21)
(-0.222841 0.116413 9.01217e-20)
(-0.203613 0.114999 3.84647e-20)
(-0.225672 0.100572 3.10685e-20)
(-0.200043 0.0968952 3.13413e-20)
(-0.228592 0.0895818 1.00547e-19)
(-0.202035 0.081169 -4.63434e-20)
(-0.228734 0.0860033 -1.13975e-19)
(-0.205019 0.0730648 1.8938e-19)
(-0.225046 0.0890095 -3.34668e-19)
(-0.205591 0.0731422 -1.10558e-19)
(-0.217168 0.09587 -1.63557e-19)
(-0.20237 0.0783768 -7.84509e-20)
(-0.204882 0.104101 -3.93667e-20)
(-0.195059 0.0856527 2.12685e-20)
(-0.183349 0.0932834 0)
(-0.188168 0.112159 -1.16106e-20)
(-0.283153 0.0638869 0)
(-0.215567 0.0383229 5.80007e-22)
(-0.244391 0.104225 1.80682e-20)
(-0.220525 0.0720749 5.68873e-21)
(-0.211386 0.116625 -3.08744e-21)
(-0.204566 0.0936105 1.82189e-20)
(-0.18953 0.112238 -3.84174e-20)
(-0.179922 0.100338 -2.13321e-20)
(-0.179731 0.09715 -2.14039e-20)
(-0.161554 0.0910359 -1.62413e-21)
(-0.178393 0.0790309 -4.67539e-20)
(-0.153393 0.0730633 -6.23866e-20)
(-0.180894 0.0653594 4.73617e-20)
(-0.153246 0.056302 -4.39707e-20)
(-0.183443 0.0599782 1.98422e-19)
(-0.157223 0.0473591 8.86701e-20)
(-0.183925 0.0617454 1.58151e-19)
(-0.161043 0.0467153 1.00567e-19)
(-0.181345 0.0672938 1.17972e-19)
(-0.162392 0.0508094 2.81441e-20)
(-0.17485 0.0739638 6.63759e-20)
(-0.160568 0.0565127 4.14518e-20)
(-0.163594 0.0805609 -7.7334e-21)
(-0.154836 0.0625618 0)
(-0.0866871 0.11027 -6.36546e-20)
(-0.102158 0.109496 -8.78233e-21)
(-0.0817359 0.11182 -1.26768e-19)
(-0.0988968 0.116241 -3.27921e-20)
(-0.0745564 0.113441 -5.60164e-20)
(-0.0939416 0.123146 -1.96312e-19)
(-0.0649161 0.113639 1.97499e-19)