/*--------------------------------*- C++ -*----------------------------------*\
| =========                 |                                                 |
| \\      /  F ield         | OpenFOAM: The Open Source CFD Toolbox           |
|  \\    /   O peration     | Version:  v1806                                 |
|   \\  /    A nd           | Web:      www.OpenFOAM.com                      |
|    \\/     M anipulation  |                                                 |
\*---------------------------------------------------------------------------*/
FoamFile
{
    version     2.0;
    format      ascii;
    class       surfaceScalarField;
    location    "3";
    object      meshPhi;
}
// * * * * * * * * * * * * * * * * * * * * * * * * * * * * * * * * * * * * * //

dimensions      [0 3 -1 0 0 0 0];
oriented        oriented;


internalField   nonuniform List<scalar> 
1460
(
-3.33727e-06
3.28687e-15
-3.33727e-06
-4.3618e-15
-3.33727e-06
-4.78408e-15
-3.33727e-06
2.54432e-15
-3.33727e-06
2.87763e-15
-3.33727e-06
-5.11893e-15
-3.33727e-06
6.44101e-16
-3.33727e-06
4.289e-15
-3.33727e-06
2.17217e-15
-3.33727e-06
-1.83562e-15
-3.33727e-06
6.43888e-15
-9.54536e-15
-3.33727e-06
-3.72989e-06
7.44904e-15
-3.72989e-06
-1.2259e-14
-3.72989e-06
-8.14093e-16
-3.72989e-06
1.17804e-14
-3.72989e-06
-8.29229e-15
-3.72989e-06
-1.63264e-15
-3.72989e-06
-5.3827e-15
-3.72989e-06
9.19205e-15
-3.72989e-06
7.194e-15
-3.72989e-06
-1.37701e-14
-3.72989e-06
5.43159e-15
1.85058e-15
-3.72989e-06
-4.12251e-06
-4.75469e-15
-4.12251e-06
1.26141e-14
-4.12251e-06
-1.30713e-14
-4.12251e-06
6.12056e-15
-4.12251e-06
-5.07345e-15
-4.12251e-06
2.66466e-15
-4.12251e-06
-3.46037e-15
-4.12251e-06
-5.116e-16
-4.12251e-06
-4.46641e-15
-4.12251e-06
9.61625e-15
-4.12251e-06
3.3626e-15
-9.46593e-15
-4.12251e-06
-4.51513e-06
-5.07319e-16
-4.51513e-06
4.74254e-15
-4.51513e-06
-8.49003e-15
-4.51513e-06
-1.63798e-15
-4.51513e-06
-1.23663e-15
-4.51513e-06
9.82116e-15
-4.51513e-06
6.03393e-15
-4.51513e-06
-4.39275e-15
-4.51513e-06
-8.55877e-15
-4.51513e-06
1.13652e-14
-4.51513e-06
-9.24483e-16
-7.80453e-15
-4.51513e-06
-4.90775e-06
4.51998e-15
-4.90775e-06
-4.6321e-15
-4.90775e-06
-3.34547e-15
-4.90775e-06
9.86494e-15
-4.90775e-06
-1.69325e-14
-4.90775e-06
1.813e-14
-4.90775e-06
-1.14774e-15
-4.90775e-06
-1.84913e-14
-4.90775e-06
1.46236e-14
-4.90775e-06
-2.9374e-15
-4.90775e-06
-3.24107e-15
7.73856e-15
-4.90775e-06
-5.30037e-06
1.03272e-14
-5.30037e-06
-1.55098e-14
-5.30037e-06
2.69938e-15
-5.30037e-06
1.92099e-15
-5.30037e-06
7.03028e-15
-5.30037e-06
-1.64259e-15
-5.30037e-06
-1.09766e-15
-5.30037e-06
-4.66818e-15
-5.30037e-06
-6.83351e-15
-5.30037e-06
2.75377e-15
-5.30037e-06
6.56973e-15
-6.3045e-15
-5.30037e-06
-5.69299e-06
-6.59233e-15
-5.69299e-06
-4.38377e-15
-5.69299e-06
9.64455e-15
-5.69299e-06
-7.26619e-15
-5.69299e-06
1.22953e-14
-5.69299e-06
-1.48812e-14
-5.69299e-06
2.21403e-14
-5.69299e-06
9.13806e-16
-5.69299e-06
-1.19295e-14
-5.69299e-06
4.04387e-15
-5.69299e-06
-1.42343e-14
1.19299e-14
-5.69299e-06
-6.08561e-06
-7.92349e-16
-6.08561e-06
8.21224e-15
-6.08561e-06
-6.93248e-15
-6.08561e-06
4.78391e-15
-6.08561e-06
-4.77545e-15
-6.08561e-06
-6.65428e-15
-6.08561e-06
1.41585e-14
-6.08561e-06
-1.59268e-14
-6.08561e-06
1.66852e-14
-6.08561e-06
-1.44554e-14
-6.08561e-06
1.75202e-14
-2.05721e-14
-6.08561e-06
-6.47823e-06
5.61294e-15
-6.47823e-06
-3.87577e-15
-6.47823e-06
2.86881e-16
-6.47823e-06
-6.17575e-15
-6.47823e-06
1.015e-15
-6.47823e-06
2.72506e-15
-6.47823e-06
4.99446e-15
-6.47823e-06
1.59019e-15
-6.47823e-06
-9.69303e-15
-6.47823e-06
8.07909e-15
-6.47823e-06
-5.49451e-15
-6.81757e-16
-6.47823e-06
-6.87085e-06
1.29626e-14
-6.87085e-06
-1.76313e-14
-6.87085e-06
8.40664e-15
-6.87085e-06
-1.846e-14
-6.87085e-06
1.66084e-14
-6.87085e-06
4.17002e-15
-6.87085e-06
-5.35182e-15
-6.87085e-06
-3.1962e-15
-6.87085e-06
8.68867e-15
-6.87085e-06
9.86641e-15
-6.87085e-06
-3.13457e-14
2.16998e-14
-6.87085e-06
-7.26347e-06
-8.68312e-15
-7.26347e-06
-3.11455e-15
-7.26347e-06
1.80087e-14
-7.26347e-06
-3.82851e-15
-7.26347e-06
-4.48602e-15
-7.26347e-06
1.53492e-14
-7.26347e-06
-3.68278e-15
-7.26347e-06
-1.08004e-14
-7.26347e-06
1.67654e-15
-7.26347e-06
4.70429e-15
-7.26347e-06
5.74832e-15
4.46419e-15
-7.26347e-06
-7.65609e-06
-1.34078e-15
-7.6561e-06
1.32419e-14
-7.65609e-06
-3.59117e-15
-7.65609e-06
-1.72755e-14
-7.65609e-06
2.44127e-15
-7.65609e-06
1.56609e-14
-7.65609e-06
-3.67898e-15
-7.65609e-06
-1.67911e-14
-7.65609e-06
-3.29367e-15
-7.65609e-06
1.34049e-14
-7.65609e-06
-3.19258e-15
-7.65609e-06
-1.48077e-14
-3.33727e-06
1.06847e-14
-3.33727e-06
-6.5235e-15
-3.33727e-06
4.52062e-15
-3.33727e-06
-1.02066e-14
-3.33727e-06
7.92499e-15
-3.33727e-06
-3.85184e-15
-3.33727e-06
1.69592e-15
-3.33727e-06
-6.0094e-15
-3.33727e-06
8.07319e-15
-3.33727e-06
1.89777e-15
-3.33727e-06
1.39224e-15
-6.20535e-15
-3.72989e-06
8.67934e-16
-3.72989e-06
-1.18024e-15
-3.72989e-06
-6.49477e-15
-3.72989e-06
1.32912e-15
-3.72989e-06
-3.26161e-15
-3.72989e-06
1.64623e-15
-3.72989e-06
-9.20333e-16
-3.72989e-06
6.091e-15
-3.72989e-06
1.3179e-15
-3.72989e-06
-1.27976e-15
-3.72989e-06
-5.17714e-15
6.31465e-15
-4.12251e-06
1.06588e-15
-4.12251e-06
2.18774e-15
-4.12251e-06
7.33669e-15
-4.12251e-06
-2.23954e-15
-4.12251e-06
-5.39891e-15
-4.12251e-06
5.1817e-15
-4.12251e-06
-2.37712e-15
-4.12251e-06
4.38651e-15
-4.12251e-06
-6.96785e-15
-4.12251e-06
-4.90949e-15
-4.12251e-06
4.03447e-15
4.1253e-15
-4.51513e-06
2.12707e-15
-4.51513e-06
6.97192e-15
-4.51513e-06
-6.81999e-15
-4.51513e-06
2.29045e-15
-4.51513e-06
-9.67474e-16
-4.51513e-06
-3.03282e-15
-4.51513e-06
8.28079e-15
-4.51513e-06
-1.643e-14
-4.51513e-06
1.90734e-15
-4.51513e-06
9.50863e-15
-4.51513e-06
-3.79274e-15
1.54631e-15
-4.90775e-06
1.4606e-15
-4.90775e-06
-1.78861e-15
-4.90775e-06
-7.24998e-15
-4.90775e-06
-2.59876e-15
-4.90775e-06
-3.81832e-15
-4.90775e-06
-2.19712e-15
-4.90775e-06
1.25125e-14
-4.90775e-06
-4.48193e-15
-4.90775e-06
1.21422e-14
-4.90775e-06
-1.41279e-14
-4.90775e-06
7.52239e-15
-1.52505e-15
-5.30037e-06
1.71445e-15
-5.30037e-06
-1.08741e-14
-5.30037e-06
1.17921e-14
-5.30037e-06
-3.34228e-15
-5.30037e-06
1.63057e-15
-5.30037e-06
7.8138e-15
-5.30037e-06
1.94391e-16
-5.30037e-06
-2.11728e-15
-5.30037e-06
2.36306e-15
-5.30037e-06
2.12728e-15
-5.30037e-06
-1.31479e-15
-5.23251e-15
-5.69299e-06
3.04228e-15
-5.69299e-06
-5.91923e-15
-5.69299e-06
-5.89517e-15
-5.69299e-06
1.09585e-14
-5.69299e-06
9.69646e-15
-5.69299e-06
-1.29041e-14
-5.69299e-06
-6.99185e-15
-5.69299e-06
1.47594e-14
-5.69299e-06
-8.33692e-15
-5.69299e-06
-2.49592e-15
-5.69299e-06
1.17045e-14
-9.29878e-15
-6.08561e-06
1.99746e-14
-6.08561e-06
-1.78111e-14
-6.08561e-06
1.4775e-14
-6.08561e-06
-2.89239e-15
-6.08561e-06
-5.63049e-15
-6.08561e-06
-1.24248e-14
-6.08561e-06
1.82721e-14
-6.08561e-06
-1.54598e-14
-6.08561e-06
5.08618e-15
-6.08561e-06
1.71569e-14
-6.08561e-06
-2.33501e-14
1.10522e-14
-6.47823e-06
2.5164e-15
-6.47823e-06
7.64424e-15
-6.47823e-06
-5.30169e-15
-6.47823e-06
-9.71633e-15
-6.47823e-06
1.43399e-14
-6.47823e-06
-8.39995e-16
-6.47823e-06
-1.34119e-14
-6.47823e-06
4.94542e-15
-6.47823e-06
-8.46604e-15
-6.47823e-06
1.19481e-14
-6.47823e-06
-9.59941e-15
7.55803e-15
-6.87085e-06
-1.71427e-14
-6.87085e-06
-3.41054e-15
-6.87085e-06
1.95861e-14
-6.87085e-06
-1.09868e-14
-6.87085e-06
2.25668e-14
-6.87085e-06
-2.47357e-14
-6.87085e-06
1.47455e-14
-6.87085e-06
1.09647e-15
-6.87085e-06
3.52404e-15
-6.87085e-06
-2.08047e-14
-6.87085e-06
5.57178e-15
3.57162e-15
-7.26347e-06
-1.65682e-14
-7.26347e-06
3.66004e-15
-7.26347e-06
-2.79656e-15
-7.26347e-06
6.81955e-15
-7.26347e-06
-6.0697e-15
-7.26347e-06
1.44676e-14
-7.26347e-06
-3.07146e-14
-7.26347e-06
5.81212e-15
-7.26347e-06
1.64582e-14
-7.26347e-06
1.57486e-15
-7.26347e-06
-6.89738e-15
-1.10234e-15
-7.65609e-06
2.56817e-14
-7.65609e-06
-1.05189e-14
-7.65609e-06
-2.73086e-15
-7.65609e-06
1.50678e-14
-7.65609e-06
1.81458e-15
-7.65609e-06
-1.12669e-14
-7.65609e-06
-1.68648e-16
-7.65609e-06
-6.61125e-15
-7.65609e-06
8.52339e-15
-7.65609e-06
-4.70909e-15
-7.65609e-06
1.02238e-14
-6.08375e-15
-3.33727e-06
-5.03292e-16
-3.33727e-06
6.06218e-15
-3.33727e-06
-8.58504e-15
-3.33727e-06
-9.02934e-16
-3.33727e-06
-3.88421e-16
-3.33727e-06
4.32424e-15
-3.33727e-06
-2.07048e-15
-3.33727e-06
-2.34643e-15
-3.33727e-06
-1.94647e-15
-3.33727e-06
2.68404e-15
-3.33727e-06
3.12041e-15
-2.84063e-15
-3.33727e-06
-3.72989e-06
2.9296e-15
-3.72989e-06
-1.39362e-15
-3.72989e-06
-5.23797e-15
-3.72989e-06
7.54981e-15
-3.72989e-06
2.05195e-15
-3.72989e-06
-5.89151e-15
-3.72989e-06
-8.77333e-15
-3.72989e-06
1.24502e-14
-3.72989e-06
-5.23468e-15
-3.72989e-06
3.71121e-15
-3.72989e-06
1.09245e-15
-2.50724e-15
-3.72989e-06
-4.12251e-06
6.9473e-15
-4.12251e-06
-1.01368e-14
-4.12251e-06
-1.25618e-15
-4.12251e-06
5.79391e-16
-4.12251e-06
6.31961e-15
-4.12251e-06
-5.08766e-15
-4.12251e-06
5.95177e-15
-4.12251e-06
1.54246e-15
-4.12251e-06
-1.00973e-14
-4.12251e-06
3.96526e-15
-4.12251e-06
9.10606e-15
-2.04403e-15
-4.12251e-06
-4.51513e-06
-7.16319e-15
-4.51513e-06
-1.63888e-15
-4.51513e-06
3.54481e-15
-4.51513e-06
1.0408e-14
-4.51513e-06
-7.4835e-15
-4.51513e-06
3.78715e-15
-4.51513e-06
-6.00535e-16
-4.51513e-06
5.32742e-15
-4.51513e-06
-5.27864e-15
-4.51513e-06
5.20047e-15
-4.51513e-06
-5.34162e-15
-2.35112e-15
-4.51513e-06
-4.90775e-06
-3.22466e-15
-4.90775e-06
7.89796e-15
-4.90775e-06
-1.08101e-14
-4.90775e-06
2.67371e-15
-4.90775e-06
-1.20942e-15
-4.90775e-06
3.12396e-15
-4.90775e-06
-5.22103e-16
-4.90775e-06
-7.96117e-15
-4.90775e-06
6.83443e-15
-4.90775e-06
5.4955e-15
-4.90775e-06
-1.1795e-14
1.36464e-14
-4.90775e-06
-5.30037e-06
1.26781e-15
-5.30037e-06
-2.44483e-15
-5.30037e-06
-6.33623e-15
-5.30037e-06
1.47135e-14
-5.30037e-06
-1.49685e-15
-5.30037e-06
-2.3216e-15
-5.30037e-06
-8.83788e-15
-5.30037e-06
6.67197e-15
-5.30037e-06
3.05944e-15
-5.30037e-06
-6.44594e-15
-5.30037e-06
-2.6422e-15
5.77917e-17
-5.30037e-06
-5.69299e-06
6.43758e-15
-5.69299e-06
-1.46594e-14
-5.69299e-06
-3.37359e-16
-5.69299e-06
5.83959e-15
-5.69299e-06
5.59787e-15
-5.69299e-06
-2.85958e-15
-5.69299e-06
1.18069e-14
-5.69299e-06
-9.42332e-15
-5.69299e-06
-2.63898e-15
-5.69299e-06
7.27474e-15
-5.69299e-06
-6.39295e-15
1.03545e-15
-5.69299e-06
-6.08561e-06
1.24488e-14
-6.08561e-06
-3.40294e-15
-6.08561e-06
-1.8719e-14
-6.08561e-06
1.79627e-14
-6.08561e-06
-8.66754e-15
-6.08561e-06
-3.44718e-15
-6.08561e-06
1.63851e-15
-6.08561e-06
5.92179e-15
-6.08561e-06
4.83382e-15
-6.08561e-06
-6.37077e-15
-6.08561e-06
-1.42139e-14
3.26695e-15
-6.08561e-06
-6.47823e-06
-7.65772e-15
-6.47823e-06
9.72861e-15
-6.47823e-06
-1.29258e-14
-6.47823e-06
9.91013e-15
-6.47823e-06
-1.17023e-14
-6.47823e-06
1.47144e-14
-6.47823e-06
-8.30808e-15
-6.47823e-06
1.14553e-14
-6.47823e-06
-1.56999e-15
-6.47823e-06
9.30297e-15
-6.47823e-06
-1.91393e-14
4.57446e-15
-6.47823e-06
-6.87085e-06
-1.82828e-15
-6.87085e-06
-4.33199e-15
-6.87085e-06
-5.94438e-15
-6.87085e-06
2.07671e-14
-6.87085e-06
8.35922e-16
-6.87085e-06
-1.16351e-14
-6.87085e-06
-8.61892e-15
-6.87085e-06
7.24915e-15
-6.87085e-06
1.72895e-14
-6.87085e-06
-2.84736e-14
-6.87085e-06
1.50964e-14
-1.39772e-14
-6.87085e-06
-7.26347e-06
4.50374e-15
-7.26347e-06
1.01501e-14
-7.26347e-06
-2.80761e-14
-7.26347e-06
1.16661e-14
-7.26347e-06
7.68757e-15
-7.26347e-06
-1.33391e-15
-7.26347e-06
6.43301e-15
-7.26347e-06
-1.33392e-14
-7.26347e-06
-1.40551e-14
-7.26347e-06
1.27176e-14
-7.26347e-06
-1.10111e-14
3.00132e-14
-7.26347e-06
-7.65609e-06
1.1513e-14
-7.65609e-06
-4.95907e-15
-7.65609e-06
-2.13619e-14
-7.6561e-06
3.18251e-14
-7.65609e-06
-2.51801e-14
-7.65609e-06
8.19592e-15
-7.65609e-06
6.96923e-15
-7.65609e-06
-7.96672e-15
-7.65609e-06
-5.23389e-15
-7.65609e-06
-4.27619e-15
-7.65609e-06
2.78094e-15
-7.65609e-06
1.06808e-14
-3.33727e-06
6.76264e-15
-3.33727e-06
7.84789e-16
-3.33727e-06
1.18765e-15
-3.33727e-06
-6.47261e-15
-3.33727e-06
1.28955e-15
-3.33727e-06
5.95109e-15
-3.33727e-06
-1.37843e-15
-3.33727e-06
-9.27544e-15
-3.33727e-06
4.35018e-15
-3.33727e-06
-1.62742e-15
-3.33727e-06
-2.3803e-15
4.201e-15
-3.72989e-06
-3.48988e-15
-3.72989e-06
4.04109e-15
-3.72989e-06
1.42604e-15
-3.72989e-06
-3.24716e-15
-3.72989e-06
-7.8559e-15
-3.72989e-06
1.2765e-14
-3.72989e-06
-4.8172e-15
-3.72989e-06
1.56386e-15
-3.72989e-06
-2.91273e-15
-3.72989e-06
-5.70364e-15
-3.72989e-06
5.79095e-15
1.6925e-15
-4.12251e-06
-4.55278e-15
-4.12251e-06
-3.45915e-15
-4.12251e-06
1.68571e-15
-4.12251e-06
7.6726e-16
-4.12251e-06
3.51124e-15
-4.12251e-06
-8.99899e-16
-4.12251e-06
-1.01295e-14
-4.12251e-06
1.53325e-14
-4.12251e-06
-1.20619e-14
-4.12251e-06
6.90559e-15
-4.12251e-06
-1.47813e-15
-1.41101e-15
-4.51513e-06
-4.8454e-15
-4.51513e-06
2.92824e-17
-4.51513e-06
1.96666e-15
-4.51513e-06
-3.8523e-15
-4.51513e-06
1.27332e-15
-4.51513e-06
7.23498e-15
-4.51513e-06
2.2468e-15
-4.51513e-06
-4.47325e-15
-4.51513e-06
-4.25032e-15
-4.51513e-06
2.85892e-15
-4.51513e-06
8.51039e-15
-5.10959e-15
-4.90775e-06
-6.09292e-15
-4.90775e-06
-9.30978e-15
-4.90775e-06
2.26889e-15
-4.90775e-06
9.5473e-16
-4.90775e-06
1.57418e-14
-4.90775e-06
-1.06014e-14
-4.90775e-06
-2.4935e-15
-4.90775e-06
1.12411e-14
-4.90775e-06
-1.50729e-14
-4.90775e-06
1.8673e-14
-4.90775e-06
-5.55624e-17
-9.40323e-15
-5.30037e-06
8.07675e-15
-5.30037e-06
-2.64277e-15
-5.30037e-06
-2.63566e-15
-5.30037e-06
-5.66448e-15
-5.30037e-06
2.97598e-15
-5.30037e-06
-1.8307e-15
-5.30037e-06
1.14146e-14
-5.30037e-06
-1.12136e-14
-5.30037e-06
1.57246e-14
-5.30037e-06
-6.62138e-15
-5.30037e-06
-1.06202e-14
7.79153e-15
-5.69299e-06
-7.85222e-15
-5.69299e-06
1.62628e-14
-5.69299e-06
2.58207e-15
-5.69299e-06
-1.97392e-14
-5.69299e-06
1.97604e-14
-5.69299e-06
-1.47353e-15
-5.69299e-06
-9.16201e-15
-5.69299e-06
1.09954e-15
-5.69299e-06
4.15915e-15
-5.69299e-06
-1.24778e-14
-5.69299e-06
1.27478e-15
3.8852e-15
-6.08561e-06
8.35383e-15
-6.08561e-06
5.84976e-15
-6.08561e-06
2.92447e-15
-6.08561e-06
-1.47437e-14
-6.08561e-06
5.10446e-15
-6.08561e-06
9.38386e-15
-6.08561e-06
-1.74529e-14
-6.08561e-06
-3.63477e-15
-6.08561e-06
1.8265e-14
-6.08561e-06
5.37041e-15
-6.08561e-06
-1.00558e-14
-6.16194e-16
-6.47823e-06
7.77261e-15
-6.47823e-06
-6.00047e-15
-6.47823e-06
3.28818e-15
-6.47823e-06
-8.95929e-15
-6.47823e-06
-1.15482e-14
-6.47823e-06
2.16106e-14
-6.47823e-06
-1.42248e-15
-6.47823e-06
-7.77182e-15
-6.47823e-06
7.09906e-15
-6.47823e-06
-3.9525e-16
-6.47823e-06
3.65648e-15
-5.71265e-15
-6.87085e-06
8.41171e-15
-6.87085e-06
-6.49065e-16
-6.87085e-06
3.67317e-15
-6.87085e-06
-2.38595e-15
-6.87085e-06
7.65877e-15
-6.87085e-06
-2.64943e-15
-6.87085e-06
-1.01463e-14
-6.87085e-06
2.1716e-14
-6.87085e-06
-1.22798e-14
-6.87085e-06
-7.4302e-15
-6.87085e-06
1.9056e-14
-1.14041e-14
-7.26347e-06
-1.34536e-14
-7.26347e-06
9.33492e-15
-7.26347e-06
-1.95935e-14
-7.26347e-06
4.97635e-15
-7.26347e-06
-1.08841e-14
-7.26347e-06
1.02131e-14
-7.26347e-06
1.80171e-14
-7.26347e-06
-1.98613e-14
-7.26347e-06
2.10493e-15
-7.26347e-06
1.49218e-14
-7.26347e-06
-2.32166e-14
1.20846e-14
-7.65609e-06
-1.39595e-14
-7.65609e-06
1.61643e-14
-7.65609e-06
-2.0412e-14
-7.65609e-06
-2.57731e-15
-7.6561e-06
2.63438e-14
-7.65609e-06
-1.76174e-14
-7.65609e-06
9.36522e-15
-7.65609e-06
4.23623e-15
-7.65609e-06
-1.16509e-14
-7.65609e-06
8.32638e-15
-7.65609e-06
-7.97707e-15
6.77002e-15
-8.04872e-06
6.78157e-15
-8.04872e-06
-1.87812e-15
-8.04872e-06
6.32595e-15
-8.04872e-06
-8.34148e-16
-8.04872e-06
-2.17714e-14
-8.04872e-06
-1.92574e-15
-8.04872e-06
1.41933e-14
-8.04872e-06
5.23768e-15
-8.04872e-06
-9.90945e-15
-8.04872e-06
-1.05589e-14
-8.04872e-06
1.78258e-14
-1.41851e-14
-8.04872e-06
-8.44134e-06
1.56838e-14
-8.44134e-06
-1.85011e-14
-8.44134e-06
1.45085e-14
-8.44134e-06
-4.47944e-15
-8.44134e-06
8.84624e-15
-8.44134e-06
-2.20583e-14
-8.44134e-06
1.86465e-15
-8.44134e-06
1.21691e-14
-8.44134e-06
1.35684e-16
-8.44134e-06
-9.45802e-15
-8.44134e-06
-1.25261e-14
1.25438e-14
-8.44134e-06
-8.83396e-06
-1.09141e-14
-8.83396e-06
-3.47218e-16
-8.83396e-06
3.04544e-14
-8.83396e-06
-2.48482e-14
-8.83396e-06
1.74863e-14
-8.83396e-06
-9.80869e-15
-8.83396e-06
4.32974e-15
-8.83396e-06
-9.48912e-15
-8.83396e-06
-5.67535e-15
-8.83396e-06
2.18222e-14
-8.83396e-06
5.25895e-15
-9.20966e-15
-8.83396e-06
-9.22658e-06
-9.22658e-06
-9.22658e-06
-9.22658e-06
-9.22658e-06
-9.22658e-06
-9.22658e-06
-9.22658e-06
-9.22658e-06
-9.22658e-06
-9.22658e-06
-9.22658e-06
-8.04872e-06
3.85749e-15
-8.04872e-06
2.17751e-14
-8.04872e-06
-1.38686e-15
-8.04872e-06
-1.98071e-14
-8.04872e-06
-2.56966e-15
-8.04872e-06
2.54899e-15
-8.04872e-06
2.09727e-14
-8.04872e-06
-1.17717e-14
-8.04872e-06
-1.01143e-14
-8.04872e-06
2.19246e-14
-8.04872e-06
-2.95825e-15
-1.17731e-14
-8.04872e-06
-8.44134e-06
5.8091e-15
-8.44134e-06
-1.72255e-14
-8.44134e-06
6.19013e-16
-8.44134e-06
7.12322e-15
-8.44134e-06
6.33203e-15
-8.44134e-06
1.86674e-14
-8.44134e-06
-2.05093e-14
-8.44134e-06
1.53248e-14
-8.44134e-06
-2.92195e-14
-8.44134e-06
1.59651e-14
-8.44134e-06
-1.83431e-14
1.67272e-14
-8.44134e-06
-8.83396e-06
4.58037e-15
-8.83396e-06
-5.87908e-15
-8.83396e-06
2.26867e-15
-8.83396e-06
-2.92625e-16
-8.83396e-06
2.83302e-15
-8.83396e-06
-1.09544e-14
-8.83396e-06
1.55454e-14
-8.83396e-06
-2.41587e-14
-8.83396e-06
2.02995e-14
-8.83396e-06
-2.60581e-14
-8.83396e-06
9.29968e-16
1.18256e-14
-8.83396e-06
-9.22658e-06
-9.22658e-06
-9.22658e-06
-9.22658e-06
-9.22658e-06
-9.22658e-06
-9.22658e-06
-9.22658e-06
-9.22658e-06
-9.22658e-06
-9.22658e-06
-9.22658e-06
-8.04872e-06
-1.34942e-14
-8.04872e-06
1.06309e-14
-8.04872e-06
2.08787e-14
-8.04872e-06
-2.07302e-14
-8.04872e-06
-1.03816e-14
-8.04872e-06
8.08474e-15
-8.04872e-06
7.52522e-15
-8.04872e-06
-1.98674e-15
-8.04872e-06
-1.37793e-14
-8.04872e-06
1.53636e-14
-8.04872e-06
-2.06685e-15
1.25778e-14
-8.04872e-06
-8.44134e-06
-6.68738e-15
-8.44134e-06
-6.07053e-15
-8.44134e-06
3.15582e-14
-8.44134e-06
-3.42654e-14
-8.44134e-06
2.97208e-14
-8.44134e-06
-1.15711e-14
-8.44134e-06
-2.04023e-14
-8.44134e-06
3.71573e-14
-8.44134e-06
-2.11938e-14
-8.44134e-06
-3.3342e-15
-8.44134e-06
1.36435e-14
-9.82632e-15
-8.44134e-06
-8.83396e-06
7.96662e-16
-8.83396e-06
1.10043e-14
-8.83396e-06
7.3063e-16
-8.83396e-06
-7.00401e-15
-8.83396e-06
-7.19125e-15
-8.83396e-06
-1.05695e-15
-8.83396e-06
1.12936e-14
-8.83396e-06
-1.78457e-14
-8.83396e-06
5.1911e-17
-8.83396e-06
1.82586e-14
-8.83396e-06
-1.83555e-14
-7.16447e-15
-8.83396e-06
-9.22658e-06
-9.22658e-06
-9.22658e-06
-9.22658e-06
-9.22658e-06
-9.22658e-06
-9.22658e-06
-9.22658e-06
-9.22658e-06
-9.22658e-06
-9.22658e-06
-9.22658e-06
-8.04872e-06
-1.60204e-14
-8.04872e-06
1.88248e-15
-8.04872e-06
6.21285e-15
-8.04872e-06
-2.18443e-14
-8.04872e-06
6.69593e-15
-8.04872e-06
2.63505e-14
-8.04872e-06
-3.07163e-14
-8.04872e-06
-1.0083e-15
-8.04872e-06
1.8459e-15
-8.04872e-06
3.77945e-15
-8.04872e-06
9.33916e-15
8.60516e-16
-8.44134e-06
6.21989e-15
-8.44134e-06
-1.38366e-14
-8.44134e-06
2.59381e-14
-8.44134e-06
-3.34015e-14
-8.44134e-06
3.13203e-14
-8.44134e-06
-3.5996e-15
-8.44134e-06
-1.0022e-14
-8.44134e-06
-6.1162e-15
-8.44134e-06
-9.94928e-15
-8.44134e-06
2.62743e-14
-8.44134e-06
-5.91251e-15
-5.64405e-15
-8.83396e-06
6.73501e-15
-8.83396e-06
-7.17664e-15
-8.83396e-06
2.73619e-14
-8.83396e-06
-2.58471e-14
-8.83396e-06
9.78218e-15
-8.83396e-06
1.19854e-14
-8.83396e-06
-2.15177e-14
-8.83396e-06
3.18688e-14
-8.83396e-06
-3.79343e-15
-8.83396e-06
-1.33944e-14
-8.83396e-06
1.29847e-14
-1.25075e-14
-9.22658e-06
-9.22658e-06
-9.22658e-06
-9.22658e-06
-9.22658e-06
-9.22658e-06
-9.22658e-06
-9.22658e-06
-9.22658e-06
-9.22658e-06
-9.22658e-06
)
;

boundaryField
{
    rotor
    {
        type            calculated;
        value           nonuniform List<scalar> 
96
(
1.9809e-16
-2.13506e-15
8.0989e-15
-7.80493e-15
7.11332e-16
-3.33247e-15
8.45388e-15
-7.64836e-15
6.49224e-15
-5.43358e-15
8.30909e-15
-8.16393e-15
8.31329e-15
-9.39597e-15
6.51326e-15
-3.87194e-15
1.89079e-15
-4.28971e-15
7.66505e-15
-8.80183e-15
-8.3709e-16
8.22272e-15
-6.61804e-15
3.46435e-15
3.15627e-15
8.10446e-16
-1.54843e-15
-4.81586e-15
3.29977e-15
-9.07496e-16
-5.59384e-16
5.07122e-15
-1.42554e-15
-2.47095e-15
-6.47108e-15
3.60624e-15
2.35354e-15
3.52134e-15
-4.91675e-16
-1.5373e-15
-6.9102e-15
9.57267e-15
-1.51745e-15
-5.88821e-15
1.8268e-15
-1.26061e-15
8.70042e-15
-6.11442e-15
-3.33727e-06
-3.72989e-06
-4.12251e-06
-4.51513e-06
-4.90775e-06
-5.30037e-06
-5.69299e-06
-6.08561e-06
-6.47823e-06
-6.87085e-06
-7.26347e-06
-7.65609e-06
3.33727e-06
3.72989e-06
4.12251e-06
4.51513e-06
4.90775e-06
5.30037e-06
5.69299e-06
6.08561e-06
6.47823e-06
6.87085e-06
7.26347e-06
7.65609e-06
3.33727e-06
3.72989e-06
4.12251e-06
4.51513e-06
4.90775e-06
5.30037e-06
5.69299e-06
6.08561e-06
6.47823e-06
6.87085e-06
7.26347e-06
7.65609e-06
-3.33727e-06
-3.72989e-06
-4.12251e-06
-4.51513e-06
-4.90775e-06
-5.30037e-06
-5.69299e-06
-6.08561e-06
-6.47823e-06
-6.87085e-06
-7.26347e-06
-7.65609e-06
)
;
    }
    stator
    {
        type            calculated;
        value           nonuniform 0();
    }
    AMI1
    {
        type            cyclicAMI;
        value           nonuniform List<scalar> 
48
(
-2.02928e-15
1.89701e-14
-3.39601e-14
3.37574e-14
-9.56457e-15
3.59333e-15
-9.66876e-15
1.62336e-14
-1.32948e-14
-5.38232e-15
1.35304e-15
2.02856e-14
-2.16298e-14
1.47119e-15
2.62276e-15
9.16181e-15
-2.10039e-14
5.00272e-15
-7.41432e-15
7.32264e-15
1.06209e-14
2.53783e-15
-1.5171e-14
6.18522e-15
9.20453e-15
-7.53572e-15
1.13281e-14
-3.07524e-14
1.08474e-14
1.27255e-14
-2.40214e-15
-1.13321e-14
1.15274e-14
-2.14329e-15
-1.90756e-15
-5.91826e-15
5.47015e-15
-2.47346e-14
2.88069e-14
1.51381e-14
-1.25898e-14
-4.86462e-15
1.38334e-14
-2.07882e-14
1.94856e-14
-2.70023e-14
-3.81586e-15
1.7419e-14
)
;
    }
    AMI2
    {
        type            cyclicAMI;
        value           nonuniform 0();
    }
    front
    {
        type            empty;
        value           nonuniform 0();
    }
    back
    {
        type            empty;
        value           nonuniform 0();
    }
    procBoundary2to3
    {
        type            processor;
        value           nonuniform List<scalar> 8(-8.04872e-06 -8.44134e-06 -8.83396e-06 -9.22658e-06 8.04872e-06 8.44134e-06 8.83396e-06 9.22658e-06);
    }
}


// ************************************************************************* //
