/*--------------------------------*- C++ -*----------------------------------*\
| =========                 |                                                 |
| \\      /  F ield         | OpenFOAM: The Open Source CFD Toolbox           |
|  \\    /   O peration     | Version:  v1806                                 |
|   \\  /    A nd           | Web:      www.OpenFOAM.com                      |
|    \\/     M anipulation  |                                                 |
\*---------------------------------------------------------------------------*/
FoamFile
{
    version     2.0;
    format      ascii;
    class       surfaceScalarField;
    location    "3";
    object      phi;
}
// * * * * * * * * * * * * * * * * * * * * * * * * * * * * * * * * * * * * * //

dimensions      [0 3 -1 0 0 0 0];
oriented        oriented;


internalField   nonuniform List<scalar> 
1460
(
-2.01224e-09
2.0123e-09
6.40451e-08
-6.60572e-08
1.38983e-07
-7.49383e-08
2.31442e-07
-9.24581e-08
3.31518e-07
-1.00077e-07
4.27978e-07
-9.64589e-08
5.20584e-07
-9.26062e-08
6.10633e-07
-9.00494e-08
6.87913e-07
-7.72798e-08
7.3795e-07
-5.00366e-08
7.42155e-07
-4.20554e-09
5.89779e-08
6.83177e-07
-3.41313e-08
3.61437e-08
2.30383e-08
-1.23227e-07
1.11282e-07
-1.63182e-07
1.96423e-07
-1.77599e-07
2.71113e-07
-1.74767e-07
3.37918e-07
-1.63264e-07
3.94962e-07
-1.4965e-07
4.3949e-07
-1.34578e-07
4.71299e-07
-1.09088e-07
4.6506e-07
-4.37974e-08
3.78582e-07
8.22722e-08
2.45967e-07
1.91593e-07
5.71778e-08
-2.1034e-08
1.24521e-07
-1.9057e-07
2.05937e-07
-2.44598e-07
2.76709e-07
-2.48371e-07
3.34341e-07
-2.324e-07
3.75734e-07
-2.04656e-07
3.93095e-07
-1.67011e-07
3.70142e-07
-1.11625e-07
2.98378e-07
-3.73239e-08
1.59425e-07
9.5155e-08
-5.78926e-08
2.9959e-07
5.46634e-07
-3.5856e-07
2.41651e-08
-4.51991e-08
7.95927e-08
-2.45997e-07
1.34003e-07
-2.99008e-07
1.7848e-07
-2.92848e-07
2.14007e-07
-2.67926e-07
2.38384e-07
-2.29033e-07
2.43773e-07
-1.72401e-07
2.16473e-07
-8.43243e-08
1.27099e-07
5.20506e-08
-4.25104e-08
2.64764e-07
-3.01277e-07
5.58357e-07
8.61649e-07
-6.16293e-07
7.79717e-09
-5.29961e-08
3.54096e-08
-2.7361e-07
5.10877e-08
-3.14686e-07
6.51727e-08
-3.06933e-07
8.44205e-08
-2.87174e-07
1.05054e-07
-2.49666e-07
1.11452e-07
-1.78799e-07
8.43336e-08
-5.72061e-08
4.66207e-09
1.31722e-07
-1.39667e-07
4.09093e-07
-3.39948e-07
7.58639e-07
1.08605e-06
-5.64353e-07
-3.00501e-08
-2.29459e-08
-7.12018e-08
-2.32458e-07
-1.19483e-07
-2.66405e-07
-1.4724e-07
-2.79176e-07
-1.41596e-07
-2.92817e-07
-1.04706e-07
-2.86557e-07
-5.38523e-08
-2.29652e-07
-2.21812e-08
-8.88771e-08
-3.30295e-08
1.42571e-07
-9.17289e-08
4.67792e-07
-1.78784e-07
8.45694e-07
1.17813e-06
-2.70856e-07
-9.02212e-08
6.72753e-08
-2.24419e-07
-9.82603e-08
-3.51048e-07
-1.39776e-07
-4.29158e-07
-2.01066e-07
-4.39224e-07
-2.82751e-07
-3.76944e-07
-3.48836e-07
-2.61912e-07
-3.44685e-07
-1.27579e-07
-2.2321e-07
-1.11042e-08
2.60957e-08
6.84486e-08
3.88239e-07
1.23912e-07
7.9023e-07
1.132e-06
1.70041e-07
-1.75752e-07
2.43028e-07
-4.11312e-07
1.37299e-07
-6.11261e-07
6.01739e-08
-7.40082e-07
-7.22451e-08
-7.72674e-07
-2.50159e-07
-6.88445e-07
-4.33065e-07
-5.04585e-07
-5.28545e-07
-2.50841e-07
-4.76954e-07
2.08447e-08
-2.4559e-07
2.74904e-07
1.3418e-07
4.92541e-07
5.72593e-07
9.50008e-07
6.7453e-07
-2.67018e-07
5.10046e-07
-5.68952e-07
4.39233e-07
-7.95281e-07
2.86503e-07
-9.25274e-07
5.77477e-08
-9.55032e-07
-2.20401e-07
-8.58809e-07
-5.29288e-07
-6.54517e-07
-7.32836e-07
-3.48635e-07
-7.82835e-07
3.83991e-08
-6.32624e-07
4.53776e-07
-2.81196e-07
8.44161e-07
1.82208e-07
6.22997e-07
1.17117e-06
-3.09537e-07
8.19583e-07
-5.56383e-07
6.86079e-07
-6.66932e-07
3.97052e-07
-6.88147e-07
7.89626e-08
-6.27153e-07
-2.81395e-07
-5.17106e-07
-6.39336e-07
-3.56461e-07
-8.93482e-07
-1.30151e-07
-1.00915e-06
1.93541e-07
-9.56315e-07
6.26985e-07
-7.1464e-07
1.11605e-06
-3.06858e-07
1.61452e-07
1.5776e-06
-1.04269e-07
9.23852e-07
-5.14056e-08
6.33215e-07
1.07232e-07
2.38414e-07
2.94576e-07
-1.08381e-07
4.71289e-07
-4.58107e-07
5.95048e-07
-7.63095e-07
6.8287e-07
-9.81304e-07
7.61703e-07
-1.08798e-06
8.78494e-07
-1.07311e-06
1.09544e-06
-9.31587e-07
1.44771e-06
-6.59127e-07
-2.8332e-07
1.89248e-06
6.87477e-07
2.36376e-07
1.24299e-06
7.76983e-08
1.62392e-06
-1.42511e-07
1.90893e-06
-3.93395e-07
2.10202e-06
-6.51196e-07
2.2062e-06
-8.67271e-07
2.23862e-06
-1.01373e-06
2.22236e-06
-1.07172e-06
2.18504e-06
-1.03579e-06
2.1676e-06
-9.14148e-07
2.23226e-06
-7.2379e-07
2.41916e-06
-4.70212e-07
5.73744e-07
1.09433e-07
4.33466e-07
1.40278e-07
2.8514e-07
1.48326e-07
1.58878e-07
1.26262e-07
9.01407e-08
6.87369e-08
9.84145e-08
-8.27383e-09
1.82213e-07
-8.37988e-08
3.21554e-07
-1.39341e-07
3.98895e-07
-7.73411e-08
3.63014e-07
3.58811e-08
1.8646e-07
1.76554e-07
1.8646e-07
-9.4068e-08
3.95094e-07
-4.30197e-07
4.76406e-07
-7.3294e-07
4.5107e-07
-9.25497e-07
3.18819e-07
-9.72967e-07
1.16208e-07
-8.56259e-07
-1.24982e-07
-6.41494e-07
-2.98564e-07
-3.78335e-07
-4.025e-07
-1.01398e-07
-3.54279e-07
8.07807e-08
-1.46298e-07
9.16874e-08
1.65647e-07
2.78147e-07
-7.07513e-07
7.44047e-07
-1.03581e-06
8.04705e-07
-1.28363e-06
6.98892e-07
-1.42797e-06
4.63157e-07
-1.46968e-06
1.57916e-07
-1.43961e-06
-1.55052e-07
-1.27366e-06
-4.64515e-07
-9.89948e-07
-6.86211e-07
-6.04848e-07
-7.39379e-07
-2.29967e-07
-5.21178e-07
-7.08606e-09
-5.72337e-08
2.71061e-07
-9.30002e-07
1.05776e-06
-1.18516e-06
1.05986e-06
-1.35572e-06
8.6945e-07
-1.45135e-06
5.58784e-07
-1.50008e-06
2.06648e-07
-1.51048e-06
-1.44651e-07
-1.48233e-06
-4.92666e-07
-1.34247e-06
-8.26071e-07
-1.02359e-06
-1.05825e-06
-5.43164e-07
-1.00161e-06
-1.00294e-07
-5.00103e-07
1.70767e-07
-7.65115e-07
1.25852e-06
-9.02791e-07
1.19754e-06
-9.69932e-07
9.36592e-07
-9.95442e-07
5.84294e-07
-1.02752e-06
2.38726e-07
-1.10179e-06
-7.03771e-08
-1.21038e-06
-3.84084e-07
-1.28565e-06
-7.50794e-07
-1.19412e-06
-1.14978e-06
-8.22066e-07
-1.37367e-06
-2.68689e-07
-1.05348e-06
-9.79219e-08
-3.45795e-07
1.33346e-06
-3.88773e-07
1.24052e-06
-4.03571e-07
9.5139e-07
-4.12984e-07
5.93707e-07
-4.44757e-07
2.70498e-07
-5.26669e-07
1.15357e-08
-6.89121e-07
-2.21633e-07
-9.10445e-07
-5.29471e-07
-1.07243e-06
-9.87794e-07
-9.63797e-07
-1.4823e-06
-4.75242e-07
-1.54204e-06
-5.73164e-07
2.06438e-07
1.29706e-06
2.25922e-07
1.22103e-06
2.2219e-07
9.55122e-07
1.91875e-07
6.24021e-07
1.34027e-07
3.28346e-07
4.03348e-08
1.05228e-07
-1.17373e-07
-6.39253e-08
-3.6788e-07
-2.78964e-07
-6.78466e-07
-6.77208e-07
-8.63348e-07
-1.29742e-06
-6.12444e-07
-1.79294e-06
-1.18561e-06
8.10354e-07
1.16124e-06
8.82784e-07
1.14861e-06
8.87951e-07
9.49955e-07
8.40676e-07
6.71296e-07
7.57596e-07
4.11426e-07
6.36597e-07
2.26227e-07
4.62018e-07
1.10654e-07
2.14104e-07
-3.10501e-08
-1.14369e-07
-3.48735e-07
-4.66499e-07
-9.4529e-07
-5.38329e-07
-1.72111e-06
-1.72394e-06
1.41332e-06
9.19084e-07
1.55094e-06
1.01099e-06
1.58304e-06
9.17848e-07
1.53304e-06
7.21294e-07
1.42732e-06
5.1715e-07
1.27387e-06
3.79677e-07
1.06513e-06
3.19394e-07
7.97311e-07
2.3677e-07
4.75019e-07
-2.64427e-08
1.12813e-07
-5.83084e-07
-2.00344e-07
-1.40795e-06
-1.92428e-06
1.94093e-06
5.55751e-07
2.17089e-06
7.81035e-07
2.26056e-06
8.28178e-07
2.23034e-06
7.51515e-07
2.11046e-06
6.37029e-07
1.92569e-06
5.64442e-07
1.691e-06
5.5409e-07
1.40898e-06
5.18787e-07
1.077e-06
3.05531e-07
6.91946e-07
-1.98025e-07
2.61189e-07
-9.77196e-07
-1.66309e-06
2.32648e-06
1.21756e-07
2.65291e-06
4.546e-07
2.8289e-06
6.52185e-07
2.85364e-06
7.26781e-07
2.75352e-06
7.37146e-07
2.5685e-06
7.4946e-07
2.33706e-06
7.8553e-07
2.07303e-06
7.82818e-07
1.75258e-06
6.25986e-07
1.32693e-06
2.27625e-07
7.38941e-07
-3.8921e-07
-9.24151e-07
2.71545e-06
-1.74539e-07
3.02661e-06
1.43437e-07
3.25608e-06
4.22722e-07
3.35425e-06
6.28609e-07
3.32102e-06
7.70372e-07
3.19228e-06
8.78207e-07
3.01545e-06
9.62355e-07
2.81499e-06
9.83278e-07
2.56513e-06
8.75849e-07
2.1552e-06
6.3755e-07
1.39824e-06
3.6775e-07
4.7409e-07
2.68205e-08
-2.68205e-08
9.78513e-08
-7.10308e-08
1.85856e-07
-8.80045e-08
2.75876e-07
-9.00202e-08
3.63773e-07
-8.78972e-08
4.49839e-07
-8.60658e-08
5.3764e-07
-8.78011e-08
6.25387e-07
-8.77469e-08
6.99969e-07
-7.45819e-08
7.45397e-07
-4.54285e-08
7.41799e-07
3.59843e-09
6.68408e-08
6.74958e-07
-1.79137e-08
-8.90682e-09
4.25014e-08
-1.31446e-07
1.19551e-07
-1.65054e-07
1.99368e-07
-1.69837e-07
2.75342e-07
-1.63871e-07
3.44109e-07
-1.54833e-07
4.0175e-07
-1.45442e-07
4.46422e-07
-1.32419e-07
4.77459e-07
-1.05619e-07
4.62822e-07
-3.07911e-08
3.63555e-07
1.02866e-07
2.70739e-07
1.59656e-07
3.03843e-08
-3.92912e-08
9.99295e-08
-2.00991e-07
1.82672e-07
-2.47796e-07
2.57534e-07
-2.44699e-07
3.19116e-07
-2.25454e-07
3.62077e-07
-1.97794e-07
3.78495e-07
-1.6186e-07
3.50886e-07
-1.0481e-07
2.72331e-07
-2.70648e-08
1.24916e-07
1.16624e-07
-1.05415e-07
3.33197e-07
5.84506e-07
-4.19182e-07
1.7776e-08
-5.70672e-08
6.85617e-08
-2.51777e-07
1.20416e-07
-2.99651e-07
1.64437e-07
-2.8872e-07
1.99884e-07
-2.609e-07
2.22567e-07
-2.20478e-07
2.23429e-07
-1.62722e-07
1.88731e-07
-7.01112e-08
8.94191e-08
7.22468e-08
-9.2852e-08
2.98895e-07
-3.61819e-07
6.02165e-07
9.0206e-07
-6.79374e-07
2.7651e-09
-5.98323e-08
2.90173e-08
-2.78029e-07
4.3297e-08
-3.1393e-07
5.67892e-08
-3.02212e-07
7.49988e-08
-2.7911e-07
9.23758e-08
-2.37855e-07
9.20245e-08
-1.62371e-07
5.68092e-08
-3.48959e-08
-3.33665e-08
1.62422e-07
-1.85675e-07
4.51203e-07
-3.88564e-07
8.05054e-07
1.12099e-06
-6.07497e-07
-3.11128e-08
-2.87195e-08
-7.31848e-08
-2.35957e-07
-1.20983e-07
-2.66132e-07
-1.47922e-07
-2.75273e-07
-1.4229e-07
-2.84743e-07
-1.07594e-07
-2.7255e-07
-6.15963e-08
-2.08369e-07
-3.79606e-08
-5.85317e-08
-5.71642e-08
1.81626e-07
-1.1932e-07
5.13359e-07
-2.03575e-07
8.8931e-07
1.20501e-06
-2.87592e-07
-8.94291e-08
6.07095e-08
-2.21636e-07
-1.0375e-07
-3.46011e-07
-1.41758e-07
-4.21892e-07
-1.99392e-07
-4.30281e-07
-2.76354e-07
-3.67521e-07
-3.3531e-07
-2.55077e-07
-3.20813e-07
-1.23773e-07
-1.89836e-07
-1.25196e-08
7.03728e-08
6.54611e-08
4.35378e-07
1.24641e-07
8.30129e-07
1.15277e-06
1.76883e-07
-1.7357e-07
2.34279e-07
-4.07003e-07
1.29684e-07
-6.04692e-07
5.59314e-08
-7.30473e-07
-7.36115e-08
-7.59651e-07
-2.47176e-07
-6.71439e-07
-4.23522e-07
-4.84318e-07
-5.07934e-07
-2.31009e-07
-4.43144e-07
4.27903e-08
-2.03427e-07
2.96101e-07
1.82067e-07
5.15255e-07
6.10976e-07
9.68817e-07
6.99206e-07
-2.65539e-07
4.99818e-07
-5.66718e-07
4.30863e-07
-7.92426e-07
2.81639e-07
-9.20528e-07
5.44901e-08
-9.46755e-07
-2.20948e-07
-8.45789e-07
-5.24488e-07
-6.3461e-07
-7.19114e-07
-3.20662e-07
-7.57092e-07
7.05009e-08
-5.9459e-07
4.92366e-07
-2.39798e-07
8.82786e-07
2.20556e-07
6.43639e-07
1.20796e-06
-3.10236e-07
8.10054e-07
-5.59072e-07
6.79699e-07
-6.70128e-07
3.92695e-07
-6.90434e-07
7.47961e-08
-6.27728e-07
-2.83654e-07
-5.15359e-07
-6.36857e-07
-3.50018e-07
-8.84454e-07
-1.14975e-07
-9.92135e-07
2.21211e-07
-9.30776e-07
6.63688e-07
-6.82276e-07
1.16101e-06
-2.76767e-07
1.84262e-07
1.62039e-06
-1.08196e-07
9.18249e-07
-5.8721e-08
6.30225e-07
9.97969e-08
2.34177e-07
2.87678e-07
-1.13085e-07
4.63812e-07
-4.59789e-07
5.86807e-07
-7.59852e-07
6.75196e-07
-9.72844e-07
7.58164e-07
-1.0751e-06
8.84405e-07
-1.05702e-06
1.11524e-06
-9.13106e-07
1.47934e-06
-6.40867e-07
-2.67777e-07
1.93137e-06
6.80351e-07
2.37899e-07
1.23442e-06
7.61513e-08
1.61605e-06
-1.47453e-07
1.90059e-06
-3.97619e-07
2.09152e-06
-6.50724e-07
2.19288e-06
-8.61208e-07
2.22311e-06
-1.00308e-06
2.20683e-06
-1.05881e-06
2.17315e-06
-1.02334e-06
2.16432e-06
-9.04278e-07
2.24076e-06
-7.17307e-07
2.43953e-06
-4.6655e-07
5.59452e-07
1.15506e-07
4.14118e-07
1.45334e-07
2.6109e-07
1.53028e-07
1.31275e-07
1.29815e-07
6.25633e-08
6.87115e-08
7.50065e-08
-1.24432e-08
1.67625e-07
-9.2619e-08
3.18222e-07
-1.50597e-07
4.02085e-07
-8.38632e-08
3.67841e-07
3.4244e-08
1.8929e-07
1.78552e-07
1.8929e-07
-1.42997e-07
4.18159e-07
-4.89979e-07
4.92316e-07
-7.93567e-07
4.56616e-07
-9.78513e-07
3.14762e-07
-1.01451e-06
1.04706e-07
-8.88747e-07
-1.38203e-07
-6.65029e-07
-3.16337e-07
-3.94659e-07
-4.20966e-07
-1.09191e-07
-3.69332e-07
7.83739e-08
-1.53321e-07
9.18184e-08
1.65107e-07
2.81108e-07
-7.74714e-07
7.73691e-07
-1.10016e-06
8.17758e-07
-1.33908e-06
6.95541e-07
-1.47414e-06
4.49817e-07
-1.51037e-06
1.4094e-07
-1.47009e-06
-1.78489e-07
-1.30136e-06
-4.85064e-07
-1.01378e-06
-7.08545e-07
-6.21976e-07
-7.61136e-07
-2.37633e-07
-5.37664e-07
-7.84247e-09
-6.46829e-08
2.73265e-07
-9.85749e-07
1.08007e-06
-1.22658e-06
1.05859e-06
-1.38236e-06
8.51325e-07
-1.4678e-06
5.35258e-07
-1.51211e-06
1.85247e-07
-1.52668e-06
-1.63919e-07
-1.50082e-06
-5.10926e-07
-1.36265e-06
-8.46716e-07
-1.04176e-06
-1.08203e-06
-5.54258e-07
-1.02516e-06
-1.03188e-07
-5.15753e-07
1.70077e-07
-7.95134e-07
1.2677e-06
-9.16958e-07
1.18041e-06
-9.7155e-07
9.05917e-07
-9.91153e-07
5.54861e-07
-1.02357e-06
2.17662e-07
-1.10334e-06
-8.41469e-08
-1.21844e-06
-3.95828e-07
-1.29979e-06
-7.65364e-07
-1.21132e-06
-1.1705e-06
-8.36747e-07
-1.39973e-06
-2.74675e-07
-1.07782e-06
-1.04598e-07
-3.5152e-07
1.33163e-06
-3.84451e-07
1.21334e-06
-3.93531e-07
9.14996e-07
-4.02018e-07
5.63348e-07
-4.35828e-07
2.51472e-07
-5.21645e-07
1.67011e-09
-6.89545e-07
-2.27928e-07
-9.17066e-07
-5.37842e-07
-1.08466e-06
-1.00291e-06
-9.7878e-07
-1.50561e-06
-4.85732e-07
-1.57087e-06
-5.9033e-07
2.18415e-07
1.2901e-06
2.40461e-07
1.1913e-06
2.3688e-07
9.18576e-07
2.05699e-07
5.94529e-07
1.46714e-07
3.10457e-07
5.10096e-08
9.73745e-08
-1.10462e-07
-6.64566e-08
-3.65364e-07
-2.8294e-07
-6.80947e-07
-6.87323e-07
-8.71552e-07
-1.31501e-06
-6.22212e-07
-1.82021e-06
-1.21254e-06
8.34464e-07
1.15484e-06
9.03757e-07
1.122e-06
9.05591e-07
9.16742e-07
8.56653e-07
6.43467e-07
7.73135e-07
3.93975e-07
6.51326e-07
2.19183e-07
4.7478e-07
1.1009e-07
2.24047e-07
-3.22079e-08
-1.07489e-07
-3.55786e-07
-4.63967e-07
-9.5853e-07
-5.41876e-07
-1.7423e-06
-1.75442e-06
1.4454e-06
9.17401e-07
1.57631e-06
9.91101e-07
1.60265e-06
8.90399e-07
1.54964e-06
6.96477e-07
1.44292e-06
5.00699e-07
1.28918e-06
3.72922e-07
1.08008e-06
3.19185e-07
8.11205e-07
2.36668e-07
4.86937e-07
-3.15177e-08
1.2244e-07
-5.94032e-07
-1.96952e-07
-1.42291e-06
-1.95137e-06
1.97757e-06
5.60217e-07
2.19937e-06
7.69303e-07
2.28181e-06
8.07961e-07
2.24705e-06
7.31232e-07
2.12531e-06
6.22444e-07
1.94059e-06
5.57641e-07
1.70679e-06
5.52988e-07
1.42513e-06
5.18321e-07
1.09138e-06
3.02239e-07
7.03878e-07
-2.06535e-07
2.67444e-07
-9.86478e-07
-1.68393e-06
2.36321e-06
1.28386e-07
2.68326e-06
4.49247e-07
2.8523e-06
6.3892e-07
2.87189e-06
7.11641e-07
2.76926e-06
7.25077e-07
2.58417e-06
7.42728e-07
2.35401e-06
7.83148e-07
2.09088e-06
7.81451e-07
1.76982e-06
6.23302e-07
1.33909e-06
2.24199e-07
7.4677e-07
-3.94161e-07
-9.37156e-07
2.7427e-06
-1.74781e-07
3.05412e-06
1.37827e-07
3.28041e-06
4.12628e-07
3.37496e-06
6.17089e-07
3.33938e-06
7.60659e-07
3.20997e-06
8.72138e-07
3.0334e-06
9.59723e-07
2.83251e-06
9.82338e-07
2.58054e-06
8.75267e-07
2.16749e-06
6.37253e-07
1.40582e-06
3.67511e-07
4.68664e-07
3.10133e-06
2.44328e-07
3.25732e-06
-7.82975e-08
3.41825e-06
-3.03438e-07
3.5597e-06
-5.34848e-07
3.65028e-06
-7.41773e-07
3.69586e-06
-9.12851e-07
3.70705e-06
-1.02491e-06
3.6924e-06
-1.05707e-06
3.65462e-06
-9.98007e-07
3.5939e-06
-8.53433e-07
3.52129e-06
-6.51181e-07
-4.28132e-07
3.47921e-06
4.65619e-06
1.43575e-07
4.72058e-06
-1.42691e-07
4.80777e-06
-3.90629e-07
4.87923e-06
-6.06307e-07
4.92533e-06
-7.87875e-07
4.94294e-06
-9.30453e-07
4.93987e-06
-1.02185e-06
4.92827e-06
-1.04546e-06
4.91749e-06
-9.87226e-07
4.90736e-06
-8.43301e-07
4.88813e-06
-6.3195e-07
-3.9135e-07
4.85134e-06
6.00044e-06
5.63031e-08
6.07782e-06
-2.20078e-07
6.14767e-06
-4.60477e-07
6.1951e-06
-6.53733e-07
6.21332e-06
-8.06095e-07
6.20467e-06
-9.21805e-07
6.17833e-06
-9.95518e-07
6.14469e-06
-1.01182e-06
6.11097e-06
-9.53509e-07
6.08081e-06
-8.13134e-07
6.06042e-06
-6.11562e-07
-3.90436e-07
6.05951e-06
7.34364e-06
7.39775e-06
7.42603e-06
7.42428e-06
7.39546e-06
7.34944e-06
7.29806e-06
7.24998e-06
7.20573e-06
7.1565e-06
7.10596e-06
7.09377e-06
3.5063e-06
-2.01623e-07
3.61363e-06
3.61005e-08
3.75208e-06
2.84279e-07
3.85482e-06
5.25866e-07
3.88329e-06
7.41906e-07
3.84064e-06
9.20855e-07
3.75549e-06
1.0475e-06
3.64916e-06
1.08961e-06
3.51367e-06
1.01135e-06
3.33013e-06
8.21087e-07
3.12404e-06
5.73841e-07
4.79593e-07
3.11854e-06
4.79134e-06
-1.41623e-07
4.72481e-06
1.02638e-07
4.67828e-06
3.30805e-07
4.65854e-06
5.45603e-07
4.65111e-06
7.49335e-07
4.64138e-06
9.30589e-07
4.62668e-06
1.06219e-06
4.60822e-06
1.10807e-06
4.57979e-06
1.03979e-06
4.53739e-06
8.63479e-07
4.48871e-06
6.22523e-07
4.04129e-07
4.56417e-06
6.06536e-06
-1.47473e-07
6.03828e-06
1.2971e-07
5.97049e-06
3.98599e-07
5.8819e-06
6.34189e-07
5.80249e-06
8.28746e-07
5.75246e-06
9.80618e-07
5.73742e-06
1.07724e-06
5.75067e-06
1.09482e-06
5.77796e-06
1.0125e-06
5.8085e-06
8.32939e-07
5.84541e-06
5.85609e-07
3.21974e-07
5.92757e-06
7.13662e-06
7.18039e-06
7.20214e-06
7.18733e-06
7.14748e-06
7.10636e-06
7.08591e-06
7.09474e-06
7.1275e-06
7.1739e-06
7.22743e-06
7.29431e-06
3.11376e-06
2.42669e-07
3.27076e-06
-8.08392e-08
3.42753e-06
-3.04226e-07
3.56219e-06
-5.32285e-07
3.64577e-06
-7.343e-07
3.68494e-06
-9.00376e-07
3.69122e-06
-1.00936e-06
3.67395e-06
-1.04154e-06
3.63631e-06
-9.85698e-07
3.57865e-06
-8.46616e-07
3.51199e-06
-6.50651e-07
-4.3295e-07
3.47839e-06
4.66932e-06
1.3752e-07
4.73473e-06
-1.46244e-07
4.8189e-06
-3.88403e-07
4.88461e-06
-5.97988e-07
4.92387e-06
-7.73561e-07
4.93496e-06
-9.11464e-07
4.92662e-06
-1.00103e-06
4.91159e-06
-1.02651e-06
4.8995e-06
-9.7361e-07
4.89004e-06
-8.3716e-07
4.87294e-06
-6.3355e-07
-3.99855e-07
4.83985e-06
6.01731e-06
4.77758e-08
6.09334e-06
-2.22276e-07
6.15968e-06
-4.54742e-07
6.20185e-06
-6.4016e-07
6.21408e-06
-7.85791e-07
6.19967e-06
-8.97054e-07
6.16856e-06
-9.6991e-07
6.13164e-06
-9.89594e-07
6.09642e-06
-9.38388e-07
6.06647e-06
-8.07207e-07
6.04722e-06
-6.14307e-07
-3.98866e-07
6.04623e-06
7.36194e-06
7.41271e-06
7.43659e-06
7.43012e-06
7.39689e-06
7.34728e-06
7.29357e-06
7.2445e-06
7.2003e-06
7.15148e-06
7.10057e-06
7.08687e-06
3.51432e-06
-2.10709e-07
3.62791e-06
2.42369e-08
3.76939e-06
2.71148e-07
3.87287e-06
5.13603e-07
3.90109e-06
7.3244e-07
3.85796e-06
9.15276e-07
3.77191e-06
1.04577e-06
3.66343e-06
1.09082e-06
3.52396e-06
1.01474e-06
3.33484e-06
8.26379e-07
3.12228e-06
5.80071e-07
4.83685e-07
4.78395e-06
-1.54812e-07
4.72201e-06
8.61814e-08
4.67981e-06
3.13344e-07
4.66372e-06
5.29694e-07
4.65892e-06
7.37243e-07
4.65048e-06
9.23706e-07
4.63541e-06
1.06084e-06
4.61445e-06
1.11177e-06
4.58127e-06
1.04792e-06
4.53242e-06
8.75236e-07
4.47636e-06
6.36126e-07
4.15924e-07
6.05229e-06
-1.60868e-07
6.02548e-06
1.12993e-07
5.95863e-06
3.80197e-07
5.8716e-06
6.16722e-07
5.79406e-06
8.1478e-07
5.74563e-06
9.72138e-07
5.73104e-06
1.07543e-06
5.74275e-06
1.10007e-06
5.76611e-06
1.02455e-06
5.79062e-06
8.50731e-07
5.82042e-06
6.0633e-07
3.40921e-07
7.12649e-06
7.16709e-06
7.18605e-06
7.16914e-06
7.12784e-06
7.08564e-06
7.06401e-06
7.07083e-06
7.10006e-06
7.14121e-06
7.18888e-06
)
;

boundaryField
{
    rotor
    {
        type            calculated;
        value           nonuniform List<scalar> 
96
(
2.32644e-24
1.11153e-24
1.37518e-23
3.76367e-23
-2.9701e-23
5.94536e-23
-2.84344e-23
9.27735e-23
-6.02033e-23
-9.56944e-23
3.56719e-24
1.12626e-22
-1.225e-22
-2.23338e-23
-1.67814e-22
-2.60562e-23
-7.98746e-23
-1.40879e-23
-5.53436e-23
-4.08679e-23
-3.30614e-23
1.92578e-23
-2.3859e-23
-1.14771e-23
1.70089e-23
1.86374e-23
-3.45865e-23
1.20717e-23
5.20348e-23
-2.31869e-23
-1.64325e-22
-1.06525e-22
-3.73524e-23
9.94168e-23
1.1017e-22
4.60378e-23
-1.19786e-22
8.6156e-23
-9.20755e-23
-7.25851e-23
2.66251e-24
-3.9136e-23
5.0975e-23
5.76444e-24
5.94529e-25
3.66027e-23
2.06792e-24
-4.18758e-24
4.23516e-22
0
0
-8.47033e-22
-8.47033e-22
0
0
0
0
-8.47033e-22
0
0
4.23516e-22
4.23516e-22
0
-8.47033e-22
0
-8.47033e-22
-8.47033e-22
8.47033e-22
8.47033e-22
0
1.69407e-21
0
4.23516e-22
-4.23516e-22
0
0
-8.47033e-22
0
0
-8.47033e-22
8.47033e-22
-1.69407e-21
0
-1.69407e-21
-4.23516e-22
4.23516e-22
0
-8.47033e-22
0
0
-8.47033e-22
8.47033e-22
0
1.69407e-21
0
0
)
;
    }
    stator
    {
        type            calculated;
        value           nonuniform 0();
    }
    AMI1
    {
        type            cyclicAMI;
        value           nonuniform List<scalar> 
48
(
-1.22195e-08
-2.74195e-07
-4.88759e-07
-6.51976e-07
-7.77281e-07
-8.75779e-07
-9.4414e-07
-9.63735e-07
-9.09258e-07
-7.63908e-07
-5.61021e-07
-3.78248e-07
-1.90319e-07
8.59427e-08
3.76843e-07
6.49002e-07
8.68593e-07
1.02174e-06
1.09769e-06
1.08599e-06
9.79736e-07
7.86532e-07
5.32081e-07
2.55095e-07
-1.9849e-08
-2.73045e-07
-4.78627e-07
-6.33687e-07
-7.52564e-07
-8.47448e-07
-9.16191e-07
-9.40532e-07
-8.94181e-07
-7.58386e-07
-5.634e-07
-3.85164e-07
-2.00489e-07
7.23887e-08
3.61238e-07
6.33629e-07
8.56087e-07
1.01434e-06
1.09706e-06
1.09325e-06
9.95318e-07
8.09584e-07
5.58663e-07
2.76257e-07
)
;
    }
    AMI2
    {
        type            cyclicAMI;
        value           nonuniform 0();
    }
    front
    {
        type            empty;
        value           nonuniform 0();
    }
    back
    {
        type            empty;
        value           nonuniform 0();
    }
    procBoundary2to3
    {
        type            processor;
        value           nonuniform List<scalar> 8(3.10725e-06 4.54412e-06 5.89542e-06 7.25354e-06 -3.10928e-06 -4.55544e-06 -5.91316e-06 -7.27511e-06);
    }
}


// ************************************************************************* //
