/*--------------------------------*- C++ -*----------------------------------*\
| =========                 |                                                 |
| \\      /  F ield         | OpenFOAM: The Open Source CFD Toolbox           |
|  \\    /   O peration     | Version:  v1806                                 |
|   \\  /    A nd           | Web:      www.OpenFOAM.com                      |
|    \\/     M anipulation  |                                                 |
\*---------------------------------------------------------------------------*/
FoamFile
{
    version     2.0;
    format      ascii;
    class       volVectorField;
    location    "3";
    object      U;
}
// * * * * * * * * * * * * * * * * * * * * * * * * * * * * * * * * * * * * * //

dimensions      [0 1 -1 0 0 0 0];


internalField   nonuniform List<vector> 
768
(
(-0.0134941 -0.137695 0)
(-0.0199961 -0.130247 -1.77328e-19)
(-0.0298447 -0.127918 9.01376e-20)
(-0.0355346 -0.120512 8.64651e-20)
(-0.0412096 -0.114799 3.39932e-19)
(-0.0467486 -0.10875 -1.68045e-19)
(-0.0517823 -0.102321 1.64946e-19)
(-0.056268 -0.0957089 8.12001e-19)
(-0.0606427 -0.0889402 -1.68701e-19)
(-0.0655569 -0.0819706 -6.35544e-19)
(-0.071365 -0.0751306 7.93665e-19)
(-0.0778486 -0.0701297 -1.58047e-19)
(-0.00238985 -0.15318 -1.79685e-20)
(-0.00267705 -0.150645 -2.62157e-19)
(-0.00920167 -0.147178 3.00062e-19)
(-0.0168177 -0.142951 -1.44714e-19)
(-0.0254249 -0.138345 0)
(-0.0341659 -0.133413 4.37008e-19)
(-0.0424369 -0.128369 -1.15031e-18)
(-0.0502843 -0.123427 5.72146e-19)
(-0.0582866 -0.118369 -2.92847e-19)
(-0.0674995 -0.112487 0)
(-0.0798868 -0.105129 0)
(-0.0958116 -0.0972156 -5.71843e-19)
(-0.00767586 -0.163614 5.01142e-20)
(-0.00998436 -0.162007 6.43864e-20)
(-0.016791 -0.15808 -6.53813e-20)
(-0.0255673 -0.153549 1.29667e-19)
(-0.0351263 -0.148869 -1.23052e-19)
(-0.0450186 -0.143935 8.78553e-19)
(-0.0551077 -0.138937 -7.49258e-19)
(-0.0657807 -0.134281 5.05448e-19)
(-0.0782554 -0.129918 -2.63746e-19)
(-0.0934815 -0.124901 2.65054e-19)
(-0.112214 -0.11811 -4.85948e-21)
(-0.134864 -0.109624 -4.92644e-19)
(-0.00304691 -0.181488 2.89882e-20)
(-0.00458425 -0.180311 -5.76132e-20)
(-0.0130733 -0.176917 -1.07471e-19)
(-0.0242943 -0.173518 0)
(-0.0362899 -0.169653 1.14279e-19)
(-0.048608 -0.165071 2.15364e-19)
(-0.0613202 -0.159877 -1.00651e-21)
(-0.074923 -0.154104 0)
(-0.0913353 -0.147555 -2.32902e-19)
(-0.112276 -0.139292 6.71384e-19)
(-0.137643 -0.128856 -6.2652e-19)
(-0.164859 -0.117467 0)
(-0.00413662 -0.197849 -4.7408e-23)
(-0.00614051 -0.197309 -1.43255e-19)
(-0.016209 -0.194965 1.96005e-19)
(-0.0292237 -0.192698 0)
(-0.0429089 -0.189347 0)
(-0.0570356 -0.184579 0)
(-0.0719849 -0.178425 -2.02102e-19)
(-0.0882388 -0.170884 1.86613e-19)
(-0.107029 -0.161945 3.83228e-19)
(-0.130061 -0.150853 -7.3756e-19)
(-0.156608 -0.137029 5.28913e-19)
(-0.182773 -0.122222 0)
(-0.00463359 -0.215066 6.17945e-20)
(-0.00859893 -0.215718 1.84076e-21)
(-0.0212582 -0.215774 7.88602e-20)
(-0.035816 -0.215442 1.65647e-19)
(-0.0503956 -0.212995 -3.22952e-19)
(-0.0652099 -0.208037 -3.30142e-19)
(-0.0809568 -0.200312 3.33493e-19)
(-0.0983766 -0.189598 -1.59677e-19)
(-0.118505 -0.176357 -3.27209e-19)
(-0.141928 -0.161075 0)
(-0.167047 -0.143385 0)
(-0.189674 -0.124969 0)
(-0.00781871 -0.231708 -5.40868e-20)
(-0.0152012 -0.234933 3.50703e-20)
(-0.0299204 -0.238205 -7.3141e-20)
(-0.0451886 -0.240189 0)
(-0.0597714 -0.239061 1.43776e-19)
(-0.0741359 -0.234118 0)
(-0.0893812 -0.224752 0)
(-0.106327 -0.210568 5.36421e-19)
(-0.125665 -0.192254 -2.59083e-19)
(-0.147454 -0.171602 2.65643e-19)
(-0.169602 -0.149531 -1.17569e-20)
(-0.188183 -0.127509 -4.15216e-19)
(-0.0136192 -0.247658 -1.55906e-20)
(-0.0253507 -0.255064 2.92386e-20)
(-0.0413725 -0.26143 0)
(-0.0564697 -0.265597 0)
(-0.0700955 -0.266089 -1.08377e-19)
(-0.0828006 -0.261744 3.03206e-19)
(-0.0960928 -0.251528 3.99073e-19)
(-0.111101 -0.2347 -4.39712e-19)
(-0.128364 -0.211528 -1.87639e-19)
(-0.147547 -0.184826 2.13654e-19)
(-0.16625 -0.157445 1.27217e-20)
(-0.181196 -0.1314 -3.14061e-19)
(-0.0223756 -0.262431 -3.50915e-20)
(-0.0380711 -0.274759 0)
(-0.0540982 -0.282439 0)
(-0.06768 -0.286772 8.83495e-20)
(-0.078837 -0.287457 -1.97717e-21)
(-0.0889674 -0.283499 -4.26788e-19)
(-0.0996932 -0.27404 -1.48493e-20)
(-0.112381 -0.257951 -1.51378e-19)
(-0.127148 -0.233913 3.29068e-19)
(-0.14345 -0.202781 0)
(-0.159225 -0.169624 1.4722e-19)
(-0.17137 -0.138461 0)
(-0.0318881 -0.275454 3.93598e-20)
(-0.0499908 -0.290831 -8.7763e-20)
(-0.0636601 -0.294317 3.61705e-20)
(-0.073657 -0.293846 0)
(-0.080656 -0.290736 1.86731e-19)
(-0.0873981 -0.285501 -1.87932e-19)
(-0.0959483 -0.277939 1.2245e-19)
(-0.107415 -0.26626 0)
(-0.121404 -0.24811 1.81111e-19)
(-0.136328 -0.221249 9.62438e-20)
(-0.150297 -0.186831 -5.70323e-21)
(-0.160999 -0.15112 -1.67019e-19)
(-0.0447109 -0.281526 -1.4487e-23)
(-0.0577629 -0.292802 8.56484e-20)
(-0.0621137 -0.284897 -2.88149e-20)
(-0.0661428 -0.274777 0)
(-0.0693474 -0.265723 -1.16226e-19)
(-0.0736577 -0.25889 -8.41399e-20)
(-0.081228 -0.253378 -1.54477e-19)
(-0.0927152 -0.24704 2.05188e-20)
(-0.107539 -0.237492 -3.46182e-19)
(-0.123946 -0.221918 -5.86138e-20)
(-0.139287 -0.197852 5.88184e-20)
(-0.151007 -0.166102 0)
(-0.0288228 -0.280984 -1.08675e-23)
(-0.0401929 -0.263379 -2.33996e-20)
(-0.043666 -0.245482 3.65504e-20)
(-0.0453985 -0.230659 0)
(-0.0478037 -0.220433 0)
(-0.0522702 -0.214228 7.23884e-20)
(-0.0600105 -0.210419 6.45429e-20)
(-0.0714713 -0.207228 1.13279e-19)
(-0.0863613 -0.202987 9.91486e-20)
(-0.103658 -0.196116 -3.22912e-20)
(-0.12139 -0.184623 -1.55138e-20)
(-0.1369 -0.166498 0)
(-0.084972 -0.0671756 6.33282e-19)
(-0.0932957 -0.0647654 -6.42564e-19)
(-0.103275 -0.0605553 -1.6283e-19)
(-0.113667 -0.0537779 3.43789e-19)
(-0.121444 -0.046476 -1.00524e-18)
(-0.124389 -0.0405304 -3.33748e-19)
(-0.12376 -0.0361405 0)
(-0.121364 -0.0296004 1.61334e-19)
(-0.118596 -0.0187198 8.31248e-20)
(-0.11823 -0.00420691 0)
(-0.121987 0.01012 1.02344e-21)
(-0.126558 0.0158202 2.0808e-20)
(-0.114383 -0.0912661 5.7579e-19)
(-0.133975 -0.0876882 2.82599e-19)
(-0.150882 -0.0864526 -5.29021e-19)
(-0.161992 -0.0871021 7.74475e-19)
(-0.166621 -0.0878628 -8.84476e-19)
(-0.166093 -0.0860934 1.16045e-18)
(-0.162337 -0.0804455 -5.17215e-19)
(-0.157884 -0.0703874 -4.1123e-19)
(-0.152362 -0.0532282 1.44435e-19)
(-0.146793 -0.0297137 7.27869e-20)
(-0.142261 -0.00457746 -3.42531e-20)
(-0.141264 0.00874538 -6.98251e-23)
(-0.158696 -0.101977 -2.32673e-19)
(-0.179178 -0.0969197 4.48637e-19)
(-0.192944 -0.0949063 4.05734e-19)
(-0.199819 -0.0951151 -2.1357e-19)
(-0.201951 -0.096512 0)
(-0.201336 -0.0983677 1.94674e-19)
(-0.198447 -0.0979923 4.00733e-19)
(-0.193794 -0.0913871 -2.07616e-19)
(-0.187366 -0.0744363 2.2154e-19)
(-0.178455 -0.0448795 -6.22835e-20)
(-0.166071 -0.00925938 6.62507e-20)
(-0.155695 0.0114905 -1.52353e-20)
(-0.189133 -0.107583 -1.90319e-19)
(-0.205939 -0.1014 5.19351e-19)
(-0.21413 -0.0996372 -3.3683e-19)
(-0.216177 -0.10143 -1.75672e-19)
(-0.215679 -0.105109 0)
(-0.215171 -0.108719 -5.23848e-19)
(-0.215596 -0.111153 1.56415e-19)
(-0.215736 -0.110735 -1.59756e-19)
(-0.213437 -0.101485 -9.2316e-20)
(-0.206253 -0.0758006 9.10346e-20)
(-0.191065 -0.0324115 5.15212e-20)
(-0.170605 0.00754039 4.05144e-20)
(-0.20316 -0.109764 2.9153e-19)
(-0.214242 -0.102205 -2.87905e-19)
(-0.216922 -0.0996555 2.80411e-19)
(-0.215329 -0.100015 -2.87555e-19)
(-0.213763 -0.101056 0)
(-0.214818 -0.102609 0)
(-0.218814 -0.105864 -1.3555e-19)
(-0.224476 -0.110408 2.85146e-19)
(-0.229001 -0.111863 0)
(-0.228494 -0.0989946 -8.03998e-20)
(-0.217728 -0.059689 -8.52008e-20)
(-0.192881 -0.00262209 -2.45016e-20)
(-0.205131 -0.109842 -2.41255e-19)
(-0.211301 -0.100899 6.98775e-19)
(-0.210588 -0.097797 -2.64012e-21)
(-0.207897 -0.0975902 -2.46364e-19)
(-0.207068 -0.0973017 0)
(-0.209426 -0.0959313 0)
(-0.215368 -0.0952212 1.34964e-19)
(-0.224573 -0.0986743 -1.32037e-19)
(-0.234833 -0.106362 0)
(-0.242163 -0.108316 0)
(-0.241458 -0.0838214 1.40264e-21)
(-0.222488 -0.0201882 7.58256e-20)
(-0.19958 -0.109469 1.99614e-19)
(-0.202875 -0.0986395 -2.25895e-19)
(-0.201203 -0.0946111 3.90196e-19)
(-0.199431 -0.0938786 -3.84324e-19)
(-0.200438 -0.0927878 -1.89932e-19)
(-0.204537 -0.0897631 -2.14735e-19)
(-0.211438 -0.0855932 2.13378e-19)
(-0.221495 -0.0842767 9.78694e-20)
(-0.233937 -0.0907659 0)
(-0.24599 -0.102222 9.43291e-20)
(-0.256551 -0.0983807 4.9351e-20)
(-0.253309 -0.0444467 -3.32231e-20)
(-0.189769 -0.110003 2.94381e-19)
(-0.191903 -0.0963016 -4.32396e-19)
(-0.190741 -0.0901663 0)
(-0.190362 -0.0882142 3.13896e-19)
(-0.192815 -0.0864744 1.69726e-19)
(-0.198342 -0.082609 -1.58298e-19)
(-0.206762 -0.0767452 8.31868e-20)
(-0.217591 -0.0720945 -9.04992e-20)
(-0.230117 -0.0737198 -5.70291e-21)
(-0.242195 -0.085667 -1.51515e-20)
(-0.259137 -0.098945 -7.60442e-21)
(-0.27651 -0.0685837 1.12886e-20)
(-0.178123 -0.112672 2.9528e-19)
(-0.179901 -0.0949663 -9.23248e-20)
(-0.179492 -0.0854914 2.00663e-19)
(-0.180184 -0.0814345 1.18832e-20)
(-0.183777 -0.0787735 1.24869e-21)
(-0.190776 -0.0742687 1.07437e-19)
(-0.200926 -0.067135 -1.81682e-19)
(-0.212942 -0.0604828 1.28067e-19)
(-0.225681 -0.0594889 -1.40991e-19)
(-0.236926 -0.0672368 -7.70464e-20)
(-0.253037 -0.0854417 -3.9113e-20)
(-0.285764 -0.0820377 -1.05699e-20)
(-0.166847 -0.119949 1.07847e-19)
(-0.168551 -0.0968175 -7.45872e-20)
(-0.168621 -0.0825312 -8.71562e-20)
(-0.169964 -0.075002 -5.02283e-20)
(-0.17453 -0.0704013 7.31368e-20)
(-0.182977 -0.064917 -9.52221e-20)
(-0.194573 -0.0568986 0)
(-0.20738 -0.0487687 4.74088e-20)
(-0.22007 -0.0458853 -4.90954e-20)
(-0.231856 -0.0520361 -2.7149e-20)
(-0.248357 -0.0660525 1.67472e-20)
(-0.282515 -0.0763735 -1.38039e-20)
(-0.15764 -0.132899 -1.78607e-19)
(-0.159986 -0.104643 -8.8408e-20)
(-0.160543 -0.0843537 5.19786e-20)
(-0.162218 -0.0715484 1.86267e-19)
(-0.167193 -0.063246 -2.17772e-20)
(-0.176141 -0.0557083 1.15996e-19)
(-0.187874 -0.0467261 -6.26908e-20)
(-0.200094 -0.0376609 2.6027e-20)
(-0.211997 -0.0327599 3.5192e-20)
(-0.223717 -0.0357423 1.92555e-20)
(-0.243947 -0.04618 -1.34483e-20)
(-0.272615 -0.0513877 -7.70499e-21)
(-0.147808 -0.141774 -4.69603e-20)
(-0.153457 -0.114826 3.13149e-20)
(-0.155907 -0.0910023 -5.68533e-20)
(-0.158196 -0.0727788 3.95256e-20)
(-0.162775 -0.0594244 -1.34554e-19)
(-0.170496 -0.0484494 -4.97233e-20)
(-0.180247 -0.0378264 4.02948e-20)
(-0.189915 -0.0279444 -5.47629e-20)
(-0.199071 -0.0213678 0)
(-0.209703 -0.0196763 0)
(-0.23071 -0.0204267 -9.29174e-21)
(-0.252874 -0.00974563 1.32673e-20)
(-0.132341 0.0123657 1.18986e-19)
(-0.129573 0.0208205 -1.32593e-19)
(-0.125119 0.0278505 -8.43075e-20)
(-0.119636 0.0344928 8.57233e-20)
(-0.113785 0.0406863 0)
(-0.107781 0.0463391 -1.6652e-19)
(-0.101604 0.0513907 0)
(-0.0951898 0.0559178 0)
(-0.0884872 0.0603693 1.52545e-19)
(-0.0815484 0.0654065 1.58516e-19)
(-0.0749317 0.0713327 1.58077e-19)
(-0.070337 0.0778719 1.57597e-19)
(-0.151102 -0.00177802 -1.92715e-20)
(-0.150353 0.00114546 -1.49808e-19)
(-0.146771 0.00867282 2.25083e-19)
(-0.142531 0.0175796 0)
(-0.137884 0.0264716 -2.91592e-19)
(-0.132952 0.0348607 -2.89361e-19)
(-0.12799 0.0427126 1.4304e-18)
(-0.123128 0.0503541 -5.71182e-19)
(-0.118057 0.05837 2.78281e-19)
(-0.112093 0.0678551 -2.93092e-19)
(-0.104622 0.0808005 2.92882e-19)
(-0.0969598 0.0972799 -5.47383e-21)
(-0.164144 0.00691171 0)
(-0.163036 0.0101591 6.28936e-20)
(-0.158941 0.017151 0)
(-0.154267 0.0261404 -1.23846e-19)
(-0.149379 0.0357786 1.23307e-19)
(-0.144324 0.0455797 0)
(-0.139374 0.0555173 -2.5742e-19)
(-0.134881 0.0662147 0)
(-0.13059 0.0790497 2.47941e-19)
(-0.125394 0.0948432 -2.64566e-19)
(-0.11831 0.114319 2.61521e-19)
(-0.109839 0.137714 -2.46596e-19)
(-0.181943 0.00192608 5.62381e-20)
(-0.180766 0.00384305 -1.13404e-19)
(-0.177391 0.0128771 0)
(-0.174005 0.0245498 4.44528e-19)
(-0.170075 0.0367772 -1.1415e-19)
(-0.165479 0.0491837 -6.67332e-19)
(-0.160368 0.0619684 4.46465e-19)
(-0.154721 0.0758295 0)
(-0.148166 0.0929099 -2.33345e-19)
(-0.139697 0.114711 4.37592e-19)
(-0.129093 0.140787 -8.31272e-19)
(-0.117777 0.168213 5.66475e-19)
(-0.198025 0.0039033 7.20088e-20)
(-0.19754 0.00608711 -9.46034e-20)
(-0.195206 0.0163749 -1.93687e-19)
(-0.192933 0.0295938 2.87522e-19)
(-0.189551 0.0434332 -1.94491e-19)
(-0.184797 0.0577237 0)
(-0.178709 0.0728893 1.8673e-19)
(-0.171236 0.0894729 0)
(-0.162326 0.108875 0)
(-0.151062 0.132683 3.59654e-19)
(-0.137045 0.159625 -3.42435e-19)
(-0.122339 0.185477 -2.90899e-19)
(-0.215171 0.00428418 -1.81129e-21)
(-0.215773 0.00843992 1.22103e-19)
(-0.215823 0.0213032 0)
(-0.215428 0.0360213 1.65485e-19)
(-0.212913 0.050764 -1.65431e-19)
(-0.207907 0.0658118 3.29488e-19)
(-0.200109 0.0818728 -1.9312e-19)
(-0.18932 0.0996719 0)
(-0.176106 0.120307 3.14431e-19)
(-0.160777 0.144219 -3.0429e-19)
(-0.142949 0.16934 -2.55831e-19)
(-0.12471 0.191304 5.11111e-19)
(-0.231731 0.00758441 -2.04605e-20)
(-0.234868 0.0150226 3.16042e-20)
(-0.238044 0.0298582 -2.00296e-19)
(-0.239922 0.0452352 0)
(-0.238674 0.0599681 0)
(-0.233587 0.0745735 0)
(-0.224016 0.0901488 -2.85484e-19)
(-0.209583 0.107452 0)
(-0.191195 0.127095 0)
(-0.170598 0.149106 2.36652e-19)
(-0.148549 0.171008 2.29605e-19)
(-0.126808 0.188817 -6.33483e-19)
(-0.247674 0.0133132 -3.50462e-21)
(-0.25495 0.0250619 -5.45201e-20)
(-0.261227 0.0412004 1.21981e-19)
(-0.265292 0.0563862 1.03518e-19)
(-0.265631 0.0701253 -1.00542e-19)
(-0.261056 0.0830219 0)
(-0.250469 0.0965803 0)
(-0.233221 0.111928 2.04218e-19)
(-0.209734 0.129419 -4.11324e-19)
(-0.183086 0.148546 5.54429e-19)
(-0.155899 0.166882 -4.94134e-19)
(-0.130265 0.181098 1.58722e-19)
(-0.262476 0.0220055 2.03628e-20)
(-0.274696 0.0377412 7.31338e-20)
(-0.282365 0.0538998 -4.58546e-20)
(-0.286658 0.0675581 -9.69689e-20)
(-0.287227 0.0787905 9.39504e-20)
(-0.283046 0.0890609 -1.37089e-20)
(-0.273202 0.099986 3.17312e-19)
(-0.25656 0.112872 -7.54812e-21)
(-0.231929 0.127822 -2.90531e-19)
(-0.200543 0.14405 -2.3296e-20)
(-0.167593 0.159347 1.49249e-22)
(-0.136915 0.17086 -1.94557e-19)
(-0.275567 0.031512 1.54174e-20)
(-0.290903 0.0497446 -1.85503e-20)
(-0.294466 0.0635346 -7.01785e-20)
(-0.293992 0.0735599 1.40237e-19)
(-0.290814 0.0806177 -1.33443e-20)
(-0.285462 0.0874915 -1.90586e-19)
(-0.27767 0.096226 0)
(-0.265576 0.107843 0)
(-0.246806 0.121847 4.51923e-20)
(-0.219314 0.136688 6.45289e-20)
(-0.184678 0.150266 -1.77722e-20)
(-0.149307 0.160362 2.56697e-20)
(-0.281792 0.0444502 -3.16229e-21)
(-0.293014 0.0576002 2.80289e-20)
(-0.285224 0.0620185 -1.35152e-19)
(-0.275085 0.0660547 1.55995e-19)
(-0.266005 0.069353 -2.31869e-20)
(-0.25916 0.0738383 1.06615e-19)
(-0.253586 0.0816071 0)
(-0.247073 0.0932407 7.09828e-20)
(-0.237173 0.108074 1.55587e-19)
(-0.221059 0.124298 -3.13904e-19)
(-0.196437 0.139318 0)
(-0.164531 0.150507 8.76198e-20)
(-0.281348 0.0287091 -3.25184e-21)
(-0.26371 0.0400711 0)
(-0.24582 0.043494 5.47075e-21)
(-0.231 0.0452989 -4.69526e-20)
(-0.220794 0.0478684 -1.77407e-19)
(-0.214627 0.0525537 -2.68862e-20)
(-0.210844 0.0605119 -4.09827e-20)
(-0.207624 0.0721205 0)
(-0.20327 0.0870356 0)
(-0.196176 0.104196 3.19109e-20)
(-0.184337 0.12162 -4.91427e-20)
(-0.165837 0.136713 -8.00464e-20)
(-0.0677593 0.0850687 -1.58354e-19)
(-0.0654318 0.0936439 -9.49925e-19)
(-0.0609203 0.104093 6.52501e-19)
(-0.0537851 0.11489 -6.63159e-19)
(-0.0464969 0.122685 6.75638e-19)
(-0.0409228 0.125371 -1.70286e-19)
(-0.0367236 0.124392 0)
(-0.0301053 0.121623 0)
(-0.0190621 0.118546 -2.44066e-19)
(-0.00433875 0.117985 -8.12001e-20)
(0.0101284 0.121767 -8.25293e-20)
(0.0159065 0.126467 1.03758e-20)
(-0.0914458 0.116478 -5.71862e-19)
(-0.0882823 0.136483 -2.59694e-19)
(-0.087412 0.153313 7.71065e-19)
(-0.0883202 0.163977 0)
(-0.0891828 0.168066 0)
(-0.0873596 0.167098 0)
(-0.0816555 0.16309 1.24109e-19)
(-0.0714023 0.158435 0)
(-0.0538768 0.152727 1.46185e-19)
(-0.0298753 0.146944 2.25286e-19)
(-0.00433157 0.142215 -1.09637e-19)
(0.0090409 0.141143 1.74291e-20)
(-0.102515 0.161822 9.44339e-21)
(-0.0978815 0.18196 4.24194e-19)
(-0.0962188 0.195029 -2.10085e-19)
(-0.0966188 0.201283 1.89638e-19)
(-0.0981202 0.203021 0)
(-0.100043 0.202093 4.0731e-19)
(-0.0996427 0.199067 -5.06756e-19)
(-0.0929952 0.194409 0)
(-0.0757955 0.187916 0)
(-0.0457379 0.17882 2.36846e-19)
(-0.00946474 0.166191 -6.61247e-20)
(0.0116203 0.155561 -1.60012e-20)
(-0.108214 0.191942 -3.61549e-19)
(-0.102441 0.207684 -3.34965e-19)
(-0.10095 0.214851 3.33955e-19)
(-0.102767 0.216288 -6.61489e-19)
(-0.106292 0.215621 1.78912e-19)
(-0.109803 0.215256 0)
(-0.112393 0.215867 1.57452e-19)
(-0.112119 0.21615 0)
(-0.102921 0.213929 -8.26171e-20)
(-0.0770101 0.206682 -1.04666e-19)
(-0.0330267 0.19131 5.26322e-20)
(0.00759794 0.170538 -5.45748e-20)
(-0.110277 0.204801 5.60232e-19)
(-0.103173 0.214601 -2.85566e-19)
(-0.100834 0.216391 2.79232e-19)
(-0.10108 0.214503 -1.34971e-19)
(-0.101882 0.213062 1.55593e-19)
(-0.103322 0.214424 0)
(-0.106599 0.218733 -7.38285e-21)
(-0.111372 0.22467 -7.22898e-21)
(-0.113112 0.22939 7.58303e-20)
(-0.100357 0.228948 -2.27954e-19)
(-0.0607241 0.218106 1.70591e-19)
(-0.00278008 0.192979 -6.94768e-20)
(-0.110115 0.205563 -2.22284e-20)
(-0.101731 0.210609 -4.53572e-21)
(-0.0988623 0.209373 2.19257e-19)
(-0.0985028 0.206765 -4.90507e-19)
(-0.0978962 0.206275 1.8109e-20)
(-0.0962786 0.208952 0)
(-0.09554 0.21514 -1.03425e-20)
(-0.0991988 0.224573 -1.05506e-20)
(-0.107251 0.235034 0)
(-0.109556 0.242507 6.55608e-20)
(-0.0851137 0.241897 -9.66307e-20)
(-0.0207217 0.222818 7.73749e-20)
(-0.109414 0.199144 1.97669e-19)
(-0.0992462 0.201621 1.57776e-20)
(-0.0955036 0.199763 -5.83477e-19)
(-0.0946205 0.198274 0)
(-0.093186 0.199624 4.11122e-19)
(-0.0898673 0.203972 1.81711e-20)
(-0.0856084 0.211059 -4.35544e-19)
(-0.0844503 0.221263 -3.28994e-21)
(-0.0912704 0.233837 6.0446e-21)
(-0.103126 0.24601 0)
(-0.099685 0.256778 5.72862e-20)
(-0.0454315 0.253729 -1.97028e-21)
(-0.109571 0.188828 1.29993e-19)
(-0.0965938 0.190433 2.86161e-19)
(-0.0908347 0.189269 1.46297e-20)
(-0.0888289 0.189196 -4.93033e-22)
(-0.0868014 0.191942 -1.50701e-20)
(-0.0826287 0.197676 3.3153e-19)
(-0.0765997 0.20624 -1.61627e-19)
(-0.0720398 0.217148 0)
(-0.0739523 0.229743 1.53885e-20)
(-0.086199 0.241866 -4.43609e-20)
(-0.0999519 0.258987 6.42756e-20)
(-0.0698172 0.276749 -2.52672e-20)
(-0.111857 0.176979 6.91108e-20)
(-0.0948983 0.178419 -4.87511e-22)
(-0.0858901 0.178079 -1.05331e-19)
(-0.0819109 0.179056 9.79191e-20)
(-0.0790524 0.182925 0)
(-0.0742594 0.190121 -1.20584e-20)
(-0.0669336 0.200371 2.28069e-19)
(-0.0603245 0.212389 -6.4603e-20)
(-0.0595777 0.225125 1.39839e-19)
(-0.0675806 0.236404 -6.28154e-20)
(-0.0860293 0.252654 0)
(-0.0831982 0.285753 -1.05013e-20)
(-0.118803 0.16571 -2.29944e-19)
(-0.0963955 0.167173 -4.35531e-20)
(-0.0826294 0.167314 0)
(-0.0752944 0.16891 5.01751e-20)
(-0.0706083 0.173738 -8.2264e-20)
(-0.0649014 0.182362 -9.60752e-20)
(-0.0567057 0.194008 -1.12214e-20)
(-0.0485864 0.206761 0)
(-0.0458749 0.219415 0)
(-0.0522091 0.231229 5.86974e-20)
(-0.0664201 0.247975 1.40198e-20)
(-0.0771966 0.282412 -1.53119e-21)
(-0.131655 0.156653 1.25226e-19)
(-0.103954 0.158763 -1.71345e-20)
(-0.0841539 0.159348 5.20141e-20)
(-0.0716102 0.161214 -7.17555e-20)
(-0.0633323 0.16641 -5.71329e-20)
(-0.055672 0.175501 5.36343e-20)
(-0.046564 0.187255 5.6323e-20)
(-0.0374948 0.199406 3.39032e-20)
(-0.0327015 0.211254 2.92799e-20)
(-0.0357868 0.223043 3.39425e-20)
(-0.0463465 0.243582 -9.69311e-21)
(-0.0518469 0.272494 5.53715e-21)
(-0.140978 0.147143 -3.27135e-20)
(-0.114192 0.152474 1.14646e-19)
(-0.0906489 0.154843 3.71104e-20)
(-0.0726415 0.157217 2.94393e-21)
(-0.0593646 0.16194 -8.09541e-20)
(-0.0483539 0.169771 -7.6265e-21)
(-0.0376683 0.179556 -7.47376e-20)
(-0.0277848 0.189207 2.34302e-20)
(-0.0212764 0.198384 -5.7822e-20)
(-0.019663 0.209105 -1.75499e-20)
(-0.0204747 0.23035 -7.61166e-21)
(-0.00999446 0.252796 -7.75613e-21)
(-0.00963832 -0.200381 -6.17259e-21)
(-0.0129047 -0.196073 0)
(-0.0183654 -0.187805 -5.88054e-20)
(-0.0240226 -0.180939 0)
(-0.0294072 -0.176233 4.84185e-20)
(-0.035327 -0.173144 4.31443e-20)
(-0.0430046 -0.170891 -4.28083e-20)
(-0.0531972 -0.168387 0)
(-0.0660658 -0.16466 -4.42514e-20)
(-0.0812723 -0.159293 -1.73765e-20)
(-0.0979463 -0.152282 8.52509e-20)
(-0.114529 -0.143222 -2.03642e-20)
(-0.0104582 -0.154256 1.06618e-20)
(-0.0140465 -0.1497 -1.18274e-20)
(-0.0163446 -0.146079 3.611e-20)
(-0.0182144 -0.143198 6.31985e-20)
(-0.0209254 -0.141234 -1.03144e-19)
(-0.0251149 -0.140081 -3.28839e-20)
(-0.0312771 -0.139217 -2.29954e-20)
(-0.0396937 -0.137706 2.03161e-20)
(-0.0502775 -0.134488 1.99423e-20)
(-0.0625928 -0.128891 3.08005e-20)
(-0.0758993 -0.121089 -4.59517e-20)
(-0.0893754 -0.111961 9.72123e-21)
(-0.00640561 -0.115208 -4.69499e-21)
(-0.00535663 -0.111843 -1.84166e-20)
(-0.00513452 -0.109239 3.63602e-20)
(-0.00622115 -0.107563 -3.81065e-20)
(-0.00869462 -0.106927 3.49706e-20)
(-0.0125679 -0.107147 0)
(-0.0179955 -0.10765 3.0255e-20)
(-0.0252057 -0.107605 5.53179e-20)
(-0.0342913 -0.106155 1.03614e-20)
(-0.0450629 -0.102656 -8.00095e-21)
(-0.0567343 -0.0968469 1.53422e-20)
(-0.0679456 -0.08883 7.97055e-21)
(-0.00260646 -0.0765986 4.05029e-21)
(-0.000519899 -0.0744011 4.72477e-21)
(0.000626052 -0.0733662 -5.63973e-20)
(0.000448259 -0.0737267 0)
(-0.00112018 -0.0752979 0)
(-0.00404726 -0.0775367 2.22117e-20)
(-0.0083623 -0.0796886 -6.10328e-20)
(-0.0142196 -0.0809356 -3.19971e-20)
(-0.0217746 -0.0805968 8.33238e-21)
(-0.031038 -0.0784887 -3.01581e-20)
(-0.041417 -0.0748249 -1.41208e-20)
(-0.0513246 -0.0692514 0)
(-0.129261 -0.130641 4.27991e-20)
(-0.140501 -0.113687 5.29372e-20)
(-0.147838 -0.0940608 7.20956e-20)
(-0.152864 -0.0749077 0)
(-0.157687 -0.0581228 0)
(-0.163491 -0.0437191 0)
(-0.169919 -0.0310181 -3.7186e-20)
(-0.17572 -0.0201889 -3.19725e-20)
(-0.180572 -0.0124533 0)
(-0.185706 -0.00774893 2.96785e-20)
(-0.192646 -0.00377186 1.14521e-20)
(-0.197863 0.0111199 2.40589e-22)
(-0.102574 -0.102444 0)
(-0.11533 -0.0924482 -2.93437e-20)
(-0.126796 -0.0810365 5.8308e-21)
(-0.136188 -0.0676915 3.57785e-21)
(-0.143529 -0.0531604 -1.40037e-20)
(-0.149216 -0.0386646 0)
(-0.153357 -0.025301 -1.22475e-20)
(-0.155763 -0.0141174 3.14503e-20)
(-0.156681 -0.00607065 -4.26413e-20)
(-0.15705 -0.00105507 -2.62058e-20)
(-0.157728 0.00238003 2.60372e-20)
(-0.157439 0.00723263 -9.37971e-23)
(-0.0780487 -0.0789615 1.92517e-22)
(-0.0878367 -0.0681381 -2.27278e-21)
(-0.0976846 -0.0578248 1.35044e-20)
(-0.10726 -0.0480857 1.66803e-20)
(-0.115773 -0.038114 8.22829e-21)
(-0.122314 -0.0275185 0)
(-0.126206 -0.0169068 0)
(-0.127288 -0.00757864 2.24161e-20)
(-0.126107 -0.000791103 5.02707e-20)
(-0.123737 0.00309424 0)
(-0.121165 0.00478981 -1.98184e-20)
(-0.118255 0.00597732 3.93143e-21)
(-0.0594435 -0.0608435 2.01115e-21)
(-0.0661327 -0.0500643 2.3635e-22)
(-0.0722072 -0.0387471 1.85867e-21)
(-0.0779239 -0.0282689 -5.95215e-21)
(-0.0831965 -0.0190836 -1.89181e-20)
(-0.0874936 -0.0110072 0)
(-0.0900295 -0.00392012 2.56853e-20)
(-0.0902811 0.00178698 0)
(-0.0884263 0.00542503 -2.21405e-20)
(-0.0852979 0.00667513 0)
(-0.0818822 0.00596771 1.37213e-20)
(-0.0786912 0.0043889 -3.74067e-21)
(-0.199911 0.00979724 4.84457e-21)
(-0.195382 0.0129146 -6.60432e-21)
(-0.18736 0.0182404 0)
(-0.180722 0.0239363 0)
(-0.176241 0.0295086 1.04453e-19)
(-0.173353 0.0356768 4.28856e-20)
(-0.171244 0.043574 8.23857e-20)
(-0.168824 0.0538953 -7.00037e-21)
(-0.165121 0.0667736 -2.89715e-20)
(-0.159726 0.0818735 5.06929e-20)
(-0.152638 0.0983401 4.39413e-20)
(-0.143431 0.114637 0)
(-0.153797 0.0102604 -5.44128e-21)
(-0.149123 0.0138306 2.19476e-20)
(-0.145551 0.0162581 0)
(-0.142824 0.0183078 -2.01821e-20)
(-0.14106 0.0212259 -6.42067e-20)
(-0.140102 0.0256214 6.65581e-20)
(-0.139403 0.0319382 -5.5501e-20)
(-0.138023 0.0404174 0)
(-0.134903 0.0509605 0)
(-0.129377 0.0631525 0)
(-0.121619 0.0762968 -7.41702e-21)
(-0.112495 0.0896067 7.50341e-21)
(-0.114571 0.00615159 4.3594e-21)
(-0.111171 0.00522056 -2.92764e-20)
(-0.108655 0.0051548 9.25316e-21)
(-0.107123 0.00643147 3.60122e-21)
(-0.106648 0.00910986 -1.52597e-20)
(-0.107023 0.0131665 -7.43239e-20)
(-0.107667 0.0187088 -2.01503e-20)
(-0.107753 0.0259329 -3.45521e-20)
(-0.106425 0.0349306 -1.05859e-20)
(-0.103035 0.045543 1.74631e-20)
(-0.0973103 0.0570387 3.11442e-21)
(-0.0893678 0.0681307 0)
(-0.0758412 0.00235994 -3.33808e-23)
(-0.0737258 0.000418444 1.15854e-20)
(-0.0728273 -0.000533047 4.59899e-20)
(-0.073324 -0.000137072 3.04351e-20)
(-0.0750039 0.00163217 -1.44039e-20)
(-0.0773217 0.00470148 2.85443e-20)
(-0.079533 0.00906373 6.40002e-20)
(-0.0808343 0.0148558 4.49282e-20)
(-0.0805619 0.0222485 -3.3573e-20)
(-0.0785441 0.0313025 1.34281e-20)
(-0.0749991 0.0415069 -9.28401e-21)
(-0.0695734 0.0513263 0)
(-0.130646 0.129037 2.11648e-20)
(-0.113566 0.139963 -1.92334e-20)
(-0.0939273 0.147102 4.96198e-20)
(-0.0748037 0.152068 -3.74719e-20)
(-0.058026 0.15692 4.398e-20)
(-0.0435924 0.16278 3.07645e-20)
(-0.0308533 0.169258 -8.72432e-20)
(-0.0200182 0.175113 1.82661e-20)
(-0.0123114 0.180075 -1.84631e-20)
(-0.00763939 0.185386 -1.93598e-20)
(-0.00369901 0.192624 -5.18776e-21)
(0.0110885 0.198051 3.10607e-22)
(-0.10295 0.10263 -2.62692e-20)
(-0.0928943 0.115219 8.05677e-21)
(-0.0813949 0.126554 -4.94888e-20)
(-0.0679392 0.13586 6.84181e-20)
(-0.0532818 0.143155 -5.51516e-20)
(-0.0386607 0.148833 0)
(-0.0251933 0.153 1.05082e-19)
(-0.0139417 0.15548 -3.64868e-20)
(-0.00585536 0.156547 0)
(-0.000807453 0.157136 2.61178e-20)
(0.00264378 0.158105 8.77159e-21)
(0.00746285 0.15812 4.8267e-24)
(-0.0795829 0.0781867 5.54965e-21)
(-0.0688288 0.0879473 2.66882e-21)
(-0.0585253 0.0977914 1.41536e-20)
(-0.0487204 0.107389 -2.23854e-20)
(-0.038612 0.115933 0)
(-0.0278321 0.122502 0)
(-0.0170257 0.126429 -3.73444e-20)
(-0.00752394 0.12758 2.23908e-20)
(-0.00059443 0.126533 2.41196e-20)
(0.00340457 0.12437 0)
(0.00517185 0.122065 -4.42755e-21)
(0.0063704 0.119441 4.04094e-21)
(-0.0613205 0.0594556 9.20651e-22)
(-0.050684 0.0662274 9.70826e-22)
(-0.0394712 0.0724155 -5.82215e-22)
(-0.0290197 0.0782697 -1.13414e-20)
(-0.0197752 0.0836905 -7.03949e-21)
(-0.0115639 0.0881316 0)
(-0.00428602 0.0908006 -3.36653e-20)
(0.00164142 0.0911844 4.18618e-20)
(0.00550565 0.089485 -2.22079e-20)
(0.00697058 0.0865551 0)
(0.00643808 0.0833705 -2.81187e-20)
(0.00492247 0.0803518 0)
)
;

boundaryField
{
    rotor
    {
        type            movingWallVelocity;
        value           nonuniform List<vector> 
96
(
(-0.00410304 -0.125504 -1.56125e-16)
(-0.0123026 -0.124967 -1.10826e-21)
(-0.0204495 -0.123895 -1.56125e-16)
(-0.0285089 -0.122292 -4.68373e-16)
(-0.0364461 -0.120166 -1.56125e-16)
(-0.0442273 -0.117525 -1.56121e-16)
(-0.0518191 -0.114381 3.12255e-16)
(-0.059189 -0.110747 1.5613e-16)
(-0.0663054 -0.106638 4.43304e-21)
(-0.0731379 -0.102073 -1.56125e-16)
(-0.0796573 -0.0970714 -1.56121e-16)
(-0.0858355 -0.0916537 1.56121e-16)
(-0.0916461 -0.0858436 -1.56125e-16)
(-0.0970643 -0.0796658 0)
(-0.102067 -0.0731469 -3.12255e-16)
(-0.106632 -0.0663148 0)
(-0.110741 -0.0591987 -1.5613e-16)
(-0.114376 -0.0518292 1.56121e-16)
(-0.117521 -0.0442376 -1.56125e-16)
(-0.120163 -0.0364567 0)
(-0.12229 -0.0285196 2.21652e-21)
(-0.123893 -0.0204604 0)
(-0.124966 -0.0123136 -1.56124e-16)
(-0.125504 -0.00411411 -1.56125e-16)
(-0.125504 0.00410304 -1.56125e-16)
(-0.124967 0.0123026 1.56124e-16)
(-0.123895 0.0204495 0)
(-0.122292 0.0285089 1.56127e-16)
(-0.120166 0.0364461 -1.56125e-16)
(-0.117525 0.0442273 -1.5613e-16)
(-0.114381 0.0518191 0)
(-0.110747 0.059189 -1.56125e-16)
(-0.106638 0.0663054 1.56121e-16)
(-0.102073 0.0731379 -1.56121e-16)
(-0.0970714 0.0796573 -1.56121e-16)
(-0.0916537 0.0858355 -4.68371e-16)
(-0.0858436 0.0916461 -1.5613e-16)
(-0.0796658 0.0970643 -1.56125e-16)
(-0.0731469 0.102067 0)
(-0.0663148 0.106632 -3.1225e-16)
(-0.0591987 0.110741 -1.56125e-16)
(-0.0518292 0.114376 -1.5613e-16)
(-0.0442376 0.117521 -1.56125e-16)
(-0.0364567 0.120163 1.56125e-16)
(-0.0285196 0.12229 -2.21652e-21)
(-0.0204604 0.123893 3.1225e-16)
(-0.0123136 0.124966 -3.12251e-16)
(-0.00411411 0.125504 2.77065e-22)
(0.00232421 0.133491 1.56125e-16)
(0.00259765 0.149196 1.56125e-16)
(0.00287109 0.164901 1.56125e-16)
(0.00314452 0.180605 1.56125e-16)
(0.00341796 0.19631 1.56125e-16)
(0.0036914 0.212015 1.56125e-16)
(0.00396483 0.22772 3.1225e-16)
(0.00423827 0.243425 1.56125e-16)
(0.00451171 0.25913 1.56125e-16)
(0.00478515 0.274834 1.56125e-16)
(0.00505858 0.290539 1.56125e-16)
(0.00533202 0.306244 1.56125e-16)
(-0.00232421 -0.133491 1.56125e-16)
(-0.00259765 -0.149196 0)
(-0.00287109 -0.164901 -1.56125e-16)
(-0.00314452 -0.180605 1.56125e-16)
(-0.00341796 -0.19631 -1.56125e-16)
(-0.0036914 -0.212015 -1.56125e-16)
(-0.00396484 -0.22772 0)
(-0.00423827 -0.243425 -1.56125e-16)
(-0.00451171 -0.25913 -8.60958e-38)
(-0.00478515 -0.274834 -3.15685e-37)
(-0.00505858 -0.290539 -1.56125e-16)
(-0.00533202 -0.306244 -3.15685e-37)
(-0.133491 0.00232421 -1.56125e-16)
(-0.149196 0.00259765 -1.56125e-16)
(-0.164901 0.00287109 -1.56125e-16)
(-0.180605 0.00314452 -1.56125e-16)
(-0.19631 0.00341796 -3.1225e-16)
(-0.212015 0.0036914 0)
(-0.22772 0.00396484 -3.1225e-16)
(-0.243425 0.00423827 -1.56125e-16)
(-0.25913 0.00451171 -1.56125e-16)
(-0.274834 0.00478515 -1.56125e-16)
(-0.290539 0.00505858 -3.1225e-16)
(-0.306244 0.00533202 -3.44383e-37)
(-0.133491 0.00232421 0)
(-0.149196 0.00259765 -3.1225e-16)
(-0.164901 0.00287109 0)
(-0.180605 0.00314452 -1.56125e-16)
(-0.19631 0.00341796 1.56125e-16)
(-0.212015 0.0036914 -1.56125e-16)
(-0.22772 0.00396484 -3.1225e-16)
(-0.243425 0.00423827 -1.56125e-16)
(-0.25913 0.00451171 -3.1225e-16)
(-0.274834 0.00478515 -1.56125e-16)
(-0.290539 0.00505858 -3.1225e-16)
(-0.306244 0.00533202 -1.56125e-16)
)
;
    }
    stator
    {
        type            movingWallVelocity;
        value           nonuniform 0();
    }
    AMI1
    {
        type            cyclicAMI;
        value           nonuniform List<vector> 
48
(
(-0.00151438 -0.0581928 2.03921e-21)
(0.0014088 -0.0571756 1.24553e-20)
(0.00305883 -0.0577218 -4.81532e-20)
(0.00308189 -0.0597108 -1.87118e-20)
(0.00164742 -0.0626547 2.63379e-20)
(-0.000975092 -0.0659083 -8.89993e-21)
(-0.00475102 -0.0688414 -3.0742e-20)