/*--------------------------------*- C++ -*----------------------------------*\
| =========                 |                                                 |
| \\      /  F ield         | OpenFOAM: The Open Source CFD Toolbox           |
|  \\    /   O peration     | Version:  v1806                                 |
|   \\  /    A nd           | Web:      www.OpenFOAM.com                      |
|    \\/     M anipulation  |                                                 |
\*---------------------------------------------------------------------------*/
FoamFile
{
    version     2.0;
    format      ascii;
    class       volScalarField;
    location    "3";
    object      p;
}
// * * * * * * * * * * * * * * * * * * * * * * * * * * * * * * * * * * * * * //

dimensions      [0 2 -2 0 0 0 0];


internalField   nonuniform List<scalar> 
768
(
-3.62411e-09
-5.05433e-09
-0.000316238
-0.000791683
-0.00144935
-0.00225377
-0.00317718
-0.0041724
-0.00515105
-0.00599299
-0.00660208
-0.00696729
-0.000186249
-0.000135105
-0.000346952
-0.000777264
-0.00139261
-0.00215667
-0.00303228
-0.00396806
-0.0048824
-0.00567626
-0.00626978
-0.00664252
-0.000406175
-0.000280764
-0.000482585
-0.00087479
-0.00144005
-0.00214728
-0.00295569
-0.00381312
-0.00464493
-0.00537234
-0.00593162
-0.00629786
-0.00063148
-0.000414261
-0.000654338
-0.00102126
-0.00154102
-0.00218819
-0.00292474
-0.00370372
-0.00445448
-0.00511292
-0.00562832
-0.00597762
-0.00721515
-0.0072866
-0.00717932
-0.00685417
-0.00632079
-0.0055858
-0.00467367
-0.0036424
-0.00258904
-0.00173045
-0.00121263
-0.000674081
-0.00684111
-0.00689777
-0.00676494
-0.00644671
-0.00595088
-0.0052817
-0.00446099
-0.00354262
-0.00259957
-0.00180715
-0.00137023
-0.000942907
-0.00648262
-0.00653106
-0.00640284
-0.00610883
-0.00565757
-0.00505472
-0.0043216
-0.00351025
-0.00267472
-0.00193513
-0.00155724
-0.0013507
-0.00616316
-0.00620473
-0.00608935
-0.00582347
-0.0054174
-0.00487935
-0.00422947
-0.00352056
-0.00279788
-0.00213988
-0.00177847
-0.001895
-5.87146e-05
1.51503e-05
-0.000245981
-0.000721752
-0.00137349
-0.00217497
-0.00309975
-0.00410444
-0.0051026
-0.00597325
-0.00661571
-0.00700926
-0.000212493
-0.000105952
-0.000293719
-0.000717456
-0.00132587
-0.00208608
-0.00296259
-0.00390669
-0.004838
-0.00565605
-0.00627629
-0.00667076
-0.000432371
-0.000264974
-0.000441399
-0.00082329
-0.00138113
-0.00208426
-0.00289318
-0.00375745
-0.00460339
-0.00535068
-0.00593179
-0.00631668
-0.00064662
-0.000398735
-0.000619889
-0.00097587
-0.00148808
-0.00213144
-0.00286842
-0.00365287
-0.00441537
-0.00508993
-0.00562316
-0.00598792
-0.00727736
-0.00734824
-0.00724233
-0.00690441
-0.006345
-0.00557534
-0.00462472
-0.0035574
-0.00247572
-0.00160129
-0.00107807
-0.000537468
-0.00687279
-0.00694736
-0.00681554
-0.00648543
-0.00596638
-0.00526599
-0.00440998
-0.00345881
-0.00248981
-0.00168329
-0.0012438
-0.000817127
-0.00651283
-0.00656882
-0.00643999
-0.00613502
-0.00566333
-0.00503316
-0.00426815
-0.00342811
-0.00256931
-0.00181655
-0.00143832
-0.00123635
-0.00618386
-0.00623102
-0.00611415
-0.00583849
-0.00541465
-0.00485346
-0.00417382
-0.0034407
-0.00269744
-0.00202633
-0.00166323
-0.00179274
-0.000545488
-0.000554393
-0.000827619
-0.00117584
-0.00165341
-0.00224191
-0.00290828
-0.00361707
-0.00429109
-0.00488836
-0.00536312
-0.00569285
-0.000656485
-0.000745202
-0.000994572
-0.00132207
-0.00176176
-0.00229609
-0.00290246
-0.0035367
-0.0041474
-0.00469174
-0.00513055
-0.00544177
-0.000797851
-0.000906992
-0.00114361
-0.00145209
-0.00185922
-0.00234828
-0.00289742
-0.00347086
-0.00402611
-0.00452442
-0.00493134
-0.00522532
-0.000943121
-0.00105342
-0.00127353
-0.00156382
-0.00194266
-0.00239322
-0.00289538
-0.0034188
-0.00392743
-0.00438643
-0.00476532
-0.0050434
-0.00107522
-0.00118057
-0.00138466
-0.00165777
-0.00201221
-0.00243079
-0.00289504
-0.00337793
-0.00384814
-0.00427445
-0.00462941
-0.00489329
-0.00118829
-0.00129218
-0.00147775
-0.00173529
-0.00206919
-0.00246177
-0.0028955
-0.00334583
-0.00378492
-0.00418452
-0.00451956
-0.00477126
-0.00128057
-0.00137673
-0.00155307
-0.00179787
-0.00211492
-0.00248674
-0.00289617
-0.00332067
-0.00373496
-0.00411317
-0.00443203
-0.00467362
-0.00135343
-0.00144315
-0.0016124
-0.00184695
-0.00215057
-0.00250612
-0.00289661
-0.00330103
-0.003696
-0.00405749
-0.00436358
-0.00459712
-0.00140867
-0.00149374
-0.00165729
-0.00188353
-0.0021774
-0.00252034
-0.0028965
-0.00328584
-0.0036663
-0.00401517
-0.00431162
-0.00453908
-0.00144798
-0.00152973
-0.00168897
-0.0019092
-0.00219583
-0.0025297
-0.00289563
-0.00327429
-0.0036445
-0.00398446
-0.00427412
-0.00449739
-0.00147307
-0.00155234
-0.00170844
-0.00192502
-0.00220657
-0.00253447
-0.00289382
-0.00326572
-0.00362948
-0.00396388
-0.00424938
-0.00447033
-0.0014891
-0.00156309
-0.00171702
-0.00193258
-0.00221094
-0.0025357
-0.0028917
-0.00326016
-0.00362064
-0.00395215
-0.00423524
-0.00445403
-0.00587443
-0.00591636
-0.00581619
-0.00557953
-0.00521632
-0.00473987
-0.00416476
-0.00355122
-0.00292992
-0.00240661
-0.00213126
-0.0024877
-0.00561861
-0.00566417
-0.0055793
-0.00536971
-0.0050456
-0.00462165
-0.00411979
-0.00359132
-0.00304367
-0.00261897
-0.00236171
-0.00238303
-0.0053973
-0.00544703
-0.0053762
-0.00519074
-0.00490131
-0.00452372
-0.0040816
-0.00361509
-0.00315481
-0.00279168
-0.00255389
-0.00257049
-0.00521023
-0.00526352
-0.00520489
-0.00504038
-0.00478099
-0.00444315
-0.00405053
-0.00363787
-0.0032408
-0.00292194
-0.00271245
-0.00268442
-0.00505503
-0.00511107
-0.00506276
-0.00491614
-0.00468237
-0.00437803
-0.0040262
-0.00365825
-0.00330881
-0.00302511
-0.0028375
-0.00278343
-0.00492832
-0.00498649
-0.0049468
-0.00481523
-0.00460293
-0.00432636
-0.00400777
-0.00367599
-0.003363
-0.00310687
-0.00293481
-0.00286909
-0.00482664
-0.0048865
-0.00485392
-0.00473478
-0.00454012
-0.00428614
-0.00399424
-0.00369112
-0.00340606
-0.00317128
-0.00301095
-0.00294042
-0.00474684
-0.00480806
-0.00478124
-0.00467213
-0.00449161
-0.00425561
-0.00398466
-0.00370379
-0.00343989
-0.00322134
-0.00306993
-0.00299788
-0.00468625
-0.00474861
-0.00472635
-0.00462509
-0.00445557
-0.00423339
-0.00397838
-0.00371423
-0.00346593
-0.00325922
-0.00311441
-0.00304232
-0.00464276
-0.00470616
-0.00468737
-0.00459197
-0.00443057
-0.0042185
-0.00397501
-0.00372278
-0.00348531
-0.00328648
-0.00314621
-0.00307465
-0.00461491
-0.00467904
-0.00466275
-0.00457144
-0.00441557
-0.00421027
-0.00397435
-0.00372974
-0.0034989
-0.00330426
-0.00316664
-0.00309555
-0.00460035
-0.00466548
-0.00465087
-0.004562
-0.00440922
-0.00420749
-0.00397543
-0.00373471
-0.00350719
-0.00331378
-0.00317792
-0.00310605
-0.000545196
-0.000536831
-0.000796065
-0.00113451
-0.0016051
-0.00219028
-0.00285717
-0.00356993
-0.00425405
-0.00486442
-0.00535363
-0.00569601
-0.000645847
-0.00072408
-0.000963891
-0.00128331
-0.00171699
-0.00224855
-0.00285498
-0.00349314
-0.00411197
-0.00466704
-0.00511753
-0.00543904
-0.000780794
-0.000883669
-0.00111304
-0.001415
-0.00181708
-0.00230374
-0.00285313
-0.00342996
-0.00399186
-0.00449899
-0.00491539
-0.00521774
-0.00092184
-0.00102847
-0.00124277
-0.00152785
-0.00190249
-0.00235106
-0.00285354
-0.00337991
-0.00389404
-0.00436034
-0.00474699
-0.00503188
-0.00105094
-0.00115434
-0.00135353
-0.00162259
-0.00197348
-0.00239045
-0.00285506
-0.00334054
-0.0038154
-0.0042478
-0.00460917
-0.00487863
-0.00116168
-0.00126177
-0.00144608
-0.00170071
-0.00203146
-0.0024228
-0.00285696
-0.00330959
-0.00375266
-0.0041574
-0.00449782
-0.00475412
-0.00125256
-0.00134678
-0.00152123
-0.00176389
-0.00207781
-0.00244879
-0.00285873
-0.00328529
-0.00370304
-0.00408567
-0.00440909
-0.00465454
-0.0013245
-0.00141285
-0.00158045
-0.0018137
-0.00211363
-0.00246895
-0.00285999
-0.00326629
-0.00366433
-0.00402967
-0.00433973
-0.00457654
-0.00137914
-0.00146314
-0.00162519
-0.00185006
-0.00214136
-0.00248381
-0.00286049
-0.00325156
-0.0036348
-0.00398711
-0.00428707
-0.00451737
-0.00141807
-0.00149894
-0.00165675
-0.00187568
-0.00216033
-0.00249362
-0.00286005
-0.00324032
-0.00361309
-0.00395621
-0.00424906
-0.00447487
-0.00144296
-0.00152142
-0.00167614
-0.00189151
-0.00217136
-0.00249866
-0.0028585
-0.00323193
-0.00359812
-0.00393549
-0.00422398
-0.00444728
-0.00145867
-0.00153212
-0.00168473
-0.00189903
-0.00217584
-0.00250002
-0.0028565
-0.00322645
-0.00358928
-0.00392367
-0.00420965
-0.00443072
-0.00588638
-0.00593251
-0.00583035
-0.00558478
-0.00520635
-0.00471198
-0.00410615
-0.0034741
-0.00283439
-0.00230065
-0.00202482
-0.00239673
-0.00562306
-0.00567163
-0.00558445
-0.00536673
-0.00502918
-0.00458815
-0.0040632
-0.00351809
-0.00295185
-0.00251863
-0.00225814
-0.00227059
-0.00539548
-0.00544727
-0.00537394
-0.00518101
-0.0048796
-0.0044866
-0.00402583
-0.00354363
-0.00306835
-0.00269607
-0.00245572
-0.0024735
-0.00520329
-0.00525791
-0.00519664
-0.00502523
-0.00475509
-0.00440353
-0.00399518
-0.00356831
-0.00315855
-0.00283141
-0.00261804
-0.00259081
-0.00504399
-0.00510077
-0.00504974
-0.0048967
-0.0046532
-0.00433661
-0.00397112
-0.00359041
-0.00322987
-0.00293851
-0.0027469
-0.00269241
-0.00491403
-0.00497249
-0.00493002
-0.00479244
-0.00457124
-0.00428362
-0.00395291
-0.00360959
-0.00328663
-0.00302335
-0.00284724
-0.0027804
-0.00480982
-0.00486963
-0.00483422
-0.0047094
-0.00450651
-0.00424244
-0.00393955
-0.0036259
-0.00333169
-0.00309014
-0.00292575
-0.0028537
-0.00472808
-0.00478898
-0.00475932
-0.00464479
-0.00445657
-0.0042112
-0.00393013
-0.00363949
-0.00336707
-0.00314201
-0.00298654
-0.00291273
-0.00466603
-0.00472789
-0.00470278
-0.0045963
-0.00441947
-0.00418848
-0.00392398
-0.00365063
-0.00339426
-0.00318121
-0.00303236
-0.00295836
-0.00462151
-0.00468426
-0.00466264
-0.00456218
-0.00439375
-0.00417327
-0.00392074
-0.0036597
-0.00341448
-0.00320938
-0.0030651
-0.0029915
-0.00459294
-0.00465639
-0.00463728
-0.00454102
-0.00437832
-0.00416486
-0.00392018
-0.00366703
-0.00342867
-0.00322768
-0.00308611
-0.00301344
-0.00457802
-0.00464244
-0.00462504
-0.00453128
-0.00437178
-0.00416203
-0.00392135
-0.00367222
-0.00343737
-0.00323733
-0.00309792
-0.00302419
)
;

boundaryField
{
    rotor
    {
        type            zeroGradient;
    }
    stator
    {
        type            zeroGradient;
    }
    AMI1
    {
        type            cyclicAMI;
        value           nonuniform 0();
    }
    AMI2
    {
        type            cyclicAMI;
        value           nonuniform List<scalar> 
48
(
6.59977e-05
3.29728e-06
-0.000359292
-0.000868294
-0.00153885
-0.00234983
-0.0032778
-0.0042809
-0.00526944
-0.00611419
-0.00671531
-0.00707436
-0.00735472
-0.00749696
-0.00743378
-0.00711987
-0.00657017
-0.00579419
-0.00482302
-0.00372394
-0.00261139
-0.00171747
-0.00118114
-0.000621698
-1.11303e-05
-3.53309e-06
-0.00029151
-0.000791123
-0.0014563
-0.00226469
-0.00319428
-0.00420691
-0.00521507
-0.0060896
-0.00672763
-0.00712081
-0.00742479
-0.00757067
-0.00750956
-0.00717882
-0.00659806
-0.00578358
-0.00477149
-0.00363474
-0.00249277
-0.00158218
-0.00104002
-0.000478822
)
;
    }
    front
    {
        type            empty;
    }
    back
    {
        type            empty;
    }
    procBoundary0to1
    {
        type            processor;
        value           nonuniform List<scalar> 8(-0.00058449 -0.000871269 -0.00128657 -0.00183959 7.45144e-05 -9.14591e-05 -0.000320607 -0.000543313);
    }
}


// ************************************************************************* //
