/*--------------------------------*- C++ -*----------------------------------*\
| =========                 |                                                 |
| \\      /  F ield         | OpenFOAM: The Open Source CFD Toolbox           |
|  \\    /   O peration     | Version:  v1806                                 |
|   \\  /    A nd           | Web:      www.OpenFOAM.com                      |
|    \\/     M anipulation  |                                                 |
\*---------------------------------------------------------------------------*/
FoamFile
{
    version     2.0;
    format      ascii;
    class       surfaceScalarField;
    location    "3";
    object      phi;
}
// * * * * * * * * * * * * * * * * * * * * * * * * * * * * * * * * * * * * * //

dimensions      [0 3 -1 0 0 0 0];
oriented        oriented;


internalField   nonuniform List<scalar> 
1460
(
-1.60778e-06
-2.68021e-07
-1.55822e-06
1.84568e-08
-1.48725e-06
2.82949e-07
-1.42274e-06
5.70821e-07
-1.36793e-06
8.11357e-07
-1.32242e-06
9.797e-07
-1.27747e-06
1.05848e-06
-1.22505e-06
1.03947e-06
-1.16438e-06
9.2393e-07
-1.10134e-06
7.26584e-07
-1.04367e-06
4.75308e-07
2.06308e-07
-9.96552e-07
-1.16395e-06
-4.46699e-07
-1.13827e-06
-7.22377e-09
-1.08398e-06
2.28663e-07
-1.00515e-06
4.91988e-07
-9.14819e-07
7.21026e-07
-8.16322e-07
8.81202e-07
-7.13103e-07
9.5526e-07
-6.10775e-07
9.37147e-07
-5.16677e-07
8.29831e-07
-4.40653e-07
6.5056e-07
-3.91663e-07
4.26318e-07
1.9119e-07
-3.76545e-07
-8.24967e-07
-7.37219e-07
-7.83059e-07
-4.91309e-08
-7.56564e-07
2.02167e-07
-6.82924e-07
4.18348e-07
-5.92558e-07
6.3066e-07
-4.91237e-07
7.79881e-07
-3.81871e-07
8.45894e-07
-2.7138e-07
8.26657e-07
-1.70589e-07
7.29039e-07
-9.38486e-08
5.7382e-07
-5.02975e-08
3.82767e-07
1.85004e-07
-4.41112e-08
-5.37688e-07
-1.02027e-06
-5.12837e-07
-7.3982e-08
-5.03957e-07
1.93287e-07
-4.40517e-07
3.54908e-07
-3.52077e-07
5.42219e-07
-2.53913e-07
6.81717e-07
-1.53657e-07
7.45639e-07
-5.78912e-08
7.30891e-07
2.42945e-08
6.46854e-07
9.06397e-08
5.07475e-07
1.29909e-07
3.43497e-07
1.38154e-07
1.7676e-07
-9.7872e-07
-4.25323e-08
-9.9265e-07
-2.66072e-07
-1.04225e-06
-4.36726e-07
-1.11758e-06
-5.66145e-07
-1.2047e-06
-6.72772e-07
-1.29083e-06
-7.67612e-07
-1.36874e-06
-8.43209e-07
-1.43678e-06
-8.7614e-07
-1.49769e-06
-8.36144e-07
-1.56616e-06
-6.92761e-07
-1.6611e-06
-4.72557e-07
-3.48502e-07
-1.70444e-06
-3.96715e-07
-2.23618e-08
-4.54582e-07
-2.08205e-07
-5.37086e-07
-3.54222e-07
-6.29639e-07
-4.73592e-07
-7.22004e-07
-5.80407e-07
-8.1091e-07
-6.78707e-07
-9.00635e-07
-7.53484e-07
-9.95838e-07
-7.80938e-07
-1.09673e-06
-7.35246e-07
-1.19967e-06
-5.89822e-07
-1.30288e-06
-3.69354e-07
-3.15729e-07
-1.33565e-06
-7.17849e-08
5.31198e-09
-1.29843e-07
-1.50147e-07
-2.05721e-07
-2.78344e-07
-2.89076e-07
-3.90237e-07
-3.73132e-07
-4.96351e-07
-4.58682e-07
-5.93156e-07
-5.47928e-07
-6.64238e-07
-6.42031e-07
-6.86835e-07
-7.45028e-07
-6.3225e-07
-8.75057e-07
-4.59792e-07
-1.0226e-06
-2.21806e-07
-2.22566e-07
-1.11577e-06
1.17972e-07
2.54939e-08
7.45773e-08
-1.06752e-07
1.60525e-08
-2.19819e-07
-5.12823e-08
-3.22902e-07
-1.25552e-07
-4.22082e-07
-2.05133e-07
-5.13575e-07
-2.87342e-07
-5.82029e-07
-3.67924e-07
-6.06253e-07
-4.38189e-07
-5.61985e-07
-5.10193e-07
-3.87788e-07
-6.14993e-07
-1.17006e-07
-8.23249e-07
-1.43099e-08
-1.61686e-06
-2.96012e-07
-1.56394e-06
1.41194e-08
-1.49231e-06
2.87725e-07
-1.42825e-06
5.72109e-07
-1.37637e-06
8.10278e-07
-1.33405e-06
9.80265e-07
-1.29174e-06
1.06371e-06
-1.24101e-06
1.05044e-06
-1.18093e-06
9.39862e-07
-1.11747e-06
7.4528e-07
-1.05858e-06
4.93584e-07
2.21013e-07
-1.00951e-06
-1.1665e-06
-4.65163e-07
-1.14434e-06
-8.03613e-09
-1.0891e-06
2.32481e-07
-1.00935e-06
4.92361e-07
-9.19911e-07
7.20838e-07
-8.22789e-07
8.83143e-07
-7.2052e-07
9.61442e-07
-6.18403e-07
9.48325e-07
-5.2367e-07
8.45129e-07
-4.46291e-07
6.67901e-07
-3.9539e-07
4.42683e-07
2.04079e-07
-3.78456e-07
-8.29247e-07
-7.51684e-07
-7.87396e-07
-4.98872e-08
-7.60004e-07
2.05089e-07
-6.86242e-07
4.186e-07
-5.96162e-07
6.30757e-07
-4.95167e-07
7.82149e-07
-3.8546e-07
8.51735e-07
-2.73579e-07
8.36444e-07
-1.70572e-07
7.42122e-07
-9.13612e-08
5.8869e-07
-4.5438e-08
3.9676e-07
1.96195e-07
-3.75539e-08
-5.40918e-07
-1.03401e-06
-5.15649e-07
-7.51557e-08
-5.06819e-07
1.96258e-07
-4.43338e-07
3.55118e-07
-3.54985e-07
5.42404e-07
-2.56869e-07
6.84034e-07
-1.56121e-07
7.50988e-07
-5.88593e-08
7.39182e-07
2.57156e-08
6.57547e-07
9.49063e-08
5.19499e-07
1.36549e-07
3.55117e-07
1.46675e-07
1.86069e-07
-9.88883e-07
-3.30263e-08
-9.99234e-07
-2.63998e-07
-1.04592e-06
-4.42186e-07
-1.11892e-06
-5.79065e-07
-1.20424e-06
-6.92028e-07
-1.28926e-06
-7.90798e-07
-1.36691e-06
-8.66512e-07
-1.43578e-06
-8.94855e-07
-1.49821e-06
-8.46772e-07
-1.56832e-06
-6.93705e-07
-1.66453e-06
-4.64666e-07
-3.35011e-07
-3.9613e-07
-1.5352e-08
-4.52374e-07
-2.07754e-07
-5.33809e-07
-3.60752e-07
-6.26084e-07
-4.86789e-07
-7.18776e-07
-5.99336e-07
-8.08568e-07
-7.01007e-07
-8.99506e-07
-7.75574e-07
-9.96289e-07
-7.98071e-07
-1.09916e-06
-7.43902e-07
-1.20419e-06
-5.88671e-07
-1.30877e-06
-3.60088e-07
-3.02808e-07
-6.43558e-08
1.14499e-08
-1.21831e-07
-1.50278e-07
-1.98342e-07
-2.84241e-07
-2.82756e-07
-4.02375e-07
-3.68587e-07
-5.13504e-07
-4.56385e-07
-6.13209e-07
-5.47842e-07
-6.84118e-07
-6.43852e-07
-7.02061e-07
-7.48591e-07
-6.39163e-07
-8.80904e-07
-4.56358e-07
-1.03044e-06
-2.10551e-07
-2.10296e-07
1.27456e-07
3.06697e-08
8.38883e-08
-1.06711e-07
2.43813e-08
-2.24734e-07
-4.43868e-08
-3.33607e-07
-1.2088e-07
-4.37011e-07
-2.03148e-07
-5.30941e-07
-2.88139e-07
-5.99126e-07
-3.70928e-07
-6.19272e-07
-4.42623e-07
-5.67468e-07
-5.16306e-07
-3.82676e-07
-6.22774e-07
-1.04083e-07
-2.08975e-09
-2.87596e-07
-7.32671e-07
-3.33328e-07
-2.82496e-08
-3.24444e-07
1.84403e-07
-2.71635e-07
3.021e-07
-1.9026e-07
4.60844e-07
-9.45513e-08
5.86009e-07
1.44499e-09
6.49642e-07
9.00198e-08
6.42316e-07
1.66255e-07
5.70619e-07
2.21331e-07
4.52399e-07
2.53376e-07
3.11452e-07
1.686e-07
2.61535e-07
-2.12939e-07
-5.19732e-07
-2.31475e-07
-9.71318e-09
-2.06725e-07
1.59653e-07
-1.61554e-07
2.56929e-07
-9.10177e-08
3.90308e-07
-3.06535e-09
4.98056e-07
8.93218e-08
5.57255e-07
1.76458e-07
5.55179e-07
2.48736e-07
4.98341e-07
3.0043e-07
4.00705e-07
3.30977e-07
2.80905e-07
1.58633e-07
3.40945e-07
-1.57269e-07
-3.62463e-07
-1.6552e-07
-1.46218e-09
-1.35187e-07
1.2932e-07
-9.5731e-08
2.17473e-07
-3.45673e-08
3.29144e-07
4.31025e-08
4.20387e-07
1.29208e-07
4.71149e-07
2.1125e-07
4.73138e-07
2.80878e-07
4.28713e-07
3.32577e-07
3.49006e-07
3.64401e-07
2.49081e-07
1.44881e-07
3.78152e-07
-1.13461e-07
-2.49002e-07
-1.19422e-07
4.49928e-09
-9.27199e-08
1.02618e-07
-5.78879e-08
1.82641e-07
-3.95699e-09
2.75213e-07
6.55816e-08
3.50848e-07
1.4298e-07
3.93751e-07
2.1852e-07
3.97599e-07
2.84364e-07
3.62868e-07
3.35154e-07
2.98216e-07
3.68737e-07
2.15499e-07
1.27804e-07
3.85814e-07
-8.0285e-08
-1.68717e-07
-8.59444e-08
1.01588e-08
-6.51047e-08
8.17782e-08
-3.40625e-08
1.51599e-07
1.38436e-08
2.27307e-07
7.59835e-08
2.88708e-07
1.45199e-07
3.24535e-07
2.14109e-07
3.28689e-07
2.75529e-07
3.01448e-07
3.24469e-07
2.49276e-07
3.58422e-07
1.81545e-07
1.08647e-07
3.77579e-07
-5.61034e-08
-1.12613e-07
-6.0635e-08
1.46905e-08
-4.43812e-08
6.55244e-08
-1.65338e-08
1.23751e-07
2.61962e-08
1.84577e-07
8.14529e-08
2.33452e-07
1.43516e-07
2.62472e-07
2.06e-07
2.66205e-07
2.62704e-07
2.44744e-07
3.08993e-07
2.02988e-07
3.42185e-07
1.48353e-07
8.87637e-08
3.62068e-07
-3.90717e-08
-7.35413e-08
-4.11537e-08
1.67726e-08
-2.77829e-08
5.21537e-08
-2.56951e-09
9.85378e-08
3.61144e-08
1.45893e-07
8.52586e-08
1.84308e-07
1.40997e-07
2.06734e-07
1.97606e-07
2.09595e-07
2.4965e-07
1.92701e-07
2.92778e-07
1.5986e-07
3.24646e-07
1.16486e-07
6.9001e-08
3.44409e-07
-2.71581e-08
-4.63831e-08
-2.67923e-08
1.64068e-08
-1.47966e-08
4.0158e-08
8.32893e-09
7.54123e-08
4.33696e-08
1.10853e-07
8.78682e-08
1.39809e-07
1.38225e-07
1.56378e-07
1.89734e-07
1.58086e-07
2.37518e-07
1.44917e-07
2.77671e-07
1.19707e-07
3.07714e-07
8.64422e-08
4.99202e-08
3.26795e-07
-1.93205e-08
-2.70625e-08
-1.67845e-08
1.38708e-08
-5.68739e-09
2.90609e-08
1.54872e-08
5.42377e-08
4.72815e-08
7.90583e-08
8.78416e-08
9.9249e-08
1.33849e-07
1.1037e-07
1.81012e-07
1.10923e-07
2.24972e-07
1.00956e-07
2.6222e-07
8.24601e-08
2.90373e-07
5.82893e-08
3.18905e-08
3.08402e-07
-1.47561e-08
-1.23063e-08
-1.15257e-08
1.06405e-08
-1.72032e-09
1.92556e-08
1.7393e-08
3.51245e-08
4.64041e-08
5.00472e-08
8.32369e-08
6.24162e-08
1.25374e-07
6.82328e-08
1.6866e-07
6.76377e-08
2.09153e-07
6.04626e-08
2.43526e-07
4.80876e-08
2.69565e-07
3.22498e-08
1.52632e-08
2.86193e-07
-1.17113e-08
-5.94911e-10
-8.76743e-09
7.69672e-09
-6.11827e-10
1.11e-08
1.68229e-08
1.76898e-08
4.32814e-08
2.35887e-08
7.76139e-08
2.80837e-08
1.16324e-07
2.9523e-08
1.55925e-07
2.80362e-08
1.92634e-07
2.37538e-08
2.23383e-07
1.73386e-08
2.46055e-07
9.57831e-09
1.58354e-09
2.59734e-07
-5.94901e-10
7.10183e-09
1.82019e-08
3.58917e-08
5.94804e-08
8.75641e-08
1.17087e-07
1.45123e-07
1.68877e-07
1.86216e-07
1.95794e-07
1.97378e-07
2.48889e-07
3.814e-08
2.17584e-07
-7.5447e-08
1.72488e-07
-1.74723e-07
1.16877e-07
-2.67291e-07
5.26944e-08
-3.57899e-07
-1.72785e-08
-4.43602e-07
-8.96263e-08
-5.09681e-07
-1.57836e-07
-5.38043e-07
-2.0646e-07
-5.13361e-07
-1.87449e-07
-4.06799e-07
-7.24243e-08
-2.32031e-07
-8.67342e-08
3.3372e-07
4.53645e-08
3.11904e-07
-5.36306e-08
2.78383e-07
-1.41203e-07
2.34139e-07
-2.23047e-07
1.80097e-07
-3.03857e-07
1.17792e-07
-3.81297e-07
5.27008e-08
-4.44589e-07
-6.64428e-09
-4.78698e-07
-5.55585e-08
-4.64447e-07
-7.01756e-08
-3.92182e-07
-3.30718e-08
-2.69135e-07
-1.19806e-07
3.76454e-07
4.70623e-08
3.62557e-07
-3.97333e-08
3.38291e-07
-1.16936e-07
3.04266e-07
-1.89022e-07
2.60086e-07
-2.59676e-07
2.0622e-07
-3.27432e-07
1.45799e-07
-3.84168e-07
8.39303e-08
-4.16829e-07
3.02302e-08
-4.10747e-07
-7.67869e-10
-3.61184e-07
-6.4509e-09
-2.63452e-07
-1.26257e-07
3.88857e-07
4.4019e-08
3.8064e-07
-3.15163e-08
3.62942e-07
-9.92381e-08
3.36026e-07
-1.62106e-07
2.99194e-07
-2.22844e-07
2.52054e-07
-2.80293e-07
1.96081e-07
-3.28194e-07
1.35361e-07
-3.56109e-07
7.73587e-08
-3.52745e-07
3.18778e-08
-3.15703e-07
9.64203e-09
-2.41216e-07
-1.16615e-07
3.83673e-07
3.7926e-08
3.7888e-07
-2.67233e-08
3.64892e-07
-8.52504e-08
3.42094e-07
-1.39308e-07
3.09844e-07
-1.90595e-07
2.67549e-07
-2.37997e-07
2.15993e-07
-2.76638e-07
1.58469e-07
-2.98585e-07
1.00975e-07
-2.95251e-07
5.11778e-08
-2.65906e-07
1.72416e-08
-2.0728e-07
-9.93732e-08
3.69778e-07
3.0216e-08
3.66922e-07
-2.38672e-08
3.54973e-07
-7.33007e-08
3.3436e-07
-1.18696e-07
3.04828e-07
-1.61062e-07
2.6606e-07
-1.9923e-07
2.18701e-07
-2.29279e-07
1.65368e-07
-2.45251e-07
1.10798e-07
-2.40681e-07
6.07595e-08
-2.15867e-07
2.12153e-08
-1.67735e-07
-7.81579e-08
3.52743e-07
2.18819e-08
3.50986e-07
-2.21102e-08
3.40146e-07
-6.24611e-08
3.20958e-07
-9.95076e-08
2.93208e-07
-1.33312e-07
2.57081e-07
-1.63103e-07
2.13225e-07
-1.85423e-07
1.63847e-07
-1.95873e-07
1.12679e-07
-1.89513e-07
6.4082e-08
-1.6727e-07
2.29461e-08
-1.26599e-07
-5.52118e-08
3.3529e-07
1.33865e-08
3.34003e-07
-2.08224e-08
3.23832e-07
-5.22903e-08
3.05421e-07
-8.10969e-08
2.78899e-07
-1.0679e-07
2.44615e-07
-1.28819e-07
2.03331e-07
-1.44139e-07
1.57012e-07
-1.49554e-07
1.08872e-07
-1.41374e-07
6.24995e-08
-1.20897e-07
2.24841e-08
-8.6584e-08
-3.27277e-08
3.1649e-07
5.29903e-09
3.15207e-07
-1.95396e-08
3.05234e-07
-4.23177e-08
2.87163e-07
-6.30256e-08
2.61335e-07
-8.09621e-08
2.28132e-07
-9.56158e-08
1.88554e-07
-1.04561e-07
1.44553e-07
-1.05553e-07
9.92639e-08
-9.60848e-08
5.60983e-08
-7.77314e-08
1.97319e-08
-5.02176e-08
-1.29958e-08
2.93312e-07
-1.82001e-09
2.91492e-07
-1.77197e-08
2.81237e-07
-3.2063e-08
2.62993e-07
-4.47818e-08
2.37254e-07
-5.52225e-08
2.04624e-07
-6.29855e-08
1.66289e-07
-6.62259e-08
1.24498e-07
-6.37622e-08
8.27248e-08
-5.43115e-08
4.45422e-08
-3.95488e-08
1.46365e-08
-2.03119e-08
1.64077e-09
2.64189e-07
-6.27439e-09
2.59892e-07
-1.34227e-08
2.47373e-07
-1.95437e-08
2.27123e-07
-2.45319e-08
1.99845e-07
-2.79446e-08
1.6657e-07
-2.97109e-08
1.29258e-07
-2.89143e-08
9.07806e-08
-2.52843e-08
5.50444e-08
-1.85753e-08
2.55588e-08
-1.00632e-08
6.30524e-09
-1.05837e-09
7.94603e-09
1.91103e-07
1.7768e-07
1.58137e-07
1.33605e-07
1.0566e-07
7.59494e-08
4.70351e-08
2.17508e-08
3.1755e-09
-6.88766e-09
-7.94603e-09
-2.90302e-07
-7.43713e-07
-3.35742e-07
-2.97162e-08
-3.2674e-07
1.87257e-07
-2.73973e-07
3.02351e-07
-1.92624e-07
4.61056e-07
-9.68806e-08
5.8829e-07
-2.82043e-10
6.54389e-07
8.94762e-08
6.49423e-07
1.67349e-07
5.79675e-07
2.24781e-07
4.62067e-07
2.59e-07
3.20897e-07
1.7591e-07
2.6916e-07
-2.15321e-07
-5.28391e-07
-2.33725e-07
-1.13128e-08
-2.08424e-07
1.61957e-07
-1.63257e-07
2.57183e-07
-9.2894e-08
3.90693e-07
-4.80869e-09
5.00205e-07
8.80509e-08
5.61529e-07
1.76103e-07
5.61371e-07
2.49875e-07
5.05902e-07
3.03309e-07
4.08633e-07
3.35729e-07
2.88477e-07
1.64535e-07
3.47104e-07
-1.5914e-07
-3.69251e-07
-1.67366e-07
-3.08717e-09
-1.36257e-07
1.30848e-07
-9.68611e-08
2.17787e-07
-3.59674e-08
3.298e-07
4.18108e-08
4.22427e-07
1.28372e-07
4.74969e-07
2.1136e-07
4.78383e-07
2.82219e-07
4.35044e-07
3.35319e-07
3.55532e-07
3.68572e-07
2.55225e-07
1.49558e-07
3.83549e-07
-1.14871e-07
-2.54381e-07
-1.20848e-07
2.89016e-09
-9.34821e-08
1.03482e-07
-5.87041e-08
1.83009e-07
-4.94076e-09
2.76036e-07
6.46846e-08
3.52801e-07
1.42585e-07
3.97068e-07
2.18902e-07
4.02066e-07
2.85828e-07
3.68117e-07
3.37761e-07
3.03599e-07
3.72531e-07
2.20456e-07
1.31544e-07
3.90544e-07
-8.13674e-08
-1.73013e-07
-8.71614e-08
8.68419e-09
-6.58384e-08
8.21593e-08
-3.47985e-08
1.51969e-07
1.30716e-08
2.28166e-07
7.53584e-08
2.90514e-07
1.45044e-07
3.27382e-07
2.14683e-07
3.32428e-07
2.77036e-07
3.05764e-07
3.26935e-07
2.537e-07
3.61855e-07
1.85536e-07
1.11644e-07
3.81755e-07
-5.70508e-08
-1.15962e-07
-6.16743e-08
1.33077e-08
-4.51701e-08
6.56551e-08
-1.72743e-08
1.24074e-07
2.55534e-08
1.85339e-07
8.10103e-08
2.35057e-07
1.4353e-07
2.64862e-07
2.06678e-07
2.6928e-07
2.64191e-07
2.48251e-07
3.11319e-07
2.06572e-07
3.45311e-07
1.51544e-07
9.11436e-08
3.65811e-07
-3.98472e-08
-7.61152e-08
-4.21285e-08
1.5589e-08
-2.85865e-08
5.21131e-08
-3.32685e-09
9.88141e-08
3.54362e-08
1.46575e-07
8.49186e-08
1.85575e-07
1.41117e-07
2.08664e-07
1.98341e-07
2.12056e-07
2.51101e-07
1.95491e-07
2.9499e-07
1.62683e-07
3.27516e-07
1.19018e-07
7.08627e-08
3.47797e-07
-2.78127e-08
-4.83025e-08
-2.76855e-08
1.54617e-08
-1.55824e-08
4.001e-08
7.74632e-09
7.54854e-08
4.28779e-08
1.11444e-07
8.7629e-08
1.40824e-07
1.38427e-07
1.57866e-07
1.90481e-07
1.60002e-07
2.38911e-07
1.47061e-07
2.79727e-07
1.21866e-07
3.10382e-07
8.83636e-08
5.13067e-08
3.29938e-07
-1.98887e-08
-2.84137e-08
-1.76048e-08
1.31778e-08
-6.47334e-09
2.88785e-08
1.47806e-08
5.42315e-08
4.67105e-08
7.95139e-08
8.75732e-08
9.99614e-08
1.34019e-07
1.11421e-07
1.81724e-07
1.12297e-07
2.26286e-07
1.02499e-07
2.64147e-07
8.40055e-08
2.92858e-07
5.96528e-08
3.2841e-08
3.11324e-07
-1.52959e-08
-1.31178e-08
-1.229e-08
1.0172e-08
-2.52907e-09
1.91175e-08
1.66291e-08
3.50733e-08
4.5841e-08
5.03021e-08
8.28957e-08
6.29067e-08
1.25453e-07
6.88628e-08
1.69249e-07
6.85009e-08
2.10321e-07
6.14274e-08
2.45276e-07
4.90508e-08
2.71845e-07
3.30838e-08
1.58089e-08
2.88877e-07
-1.21989e-08
-9.18955e-10
-9.50316e-09
7.47624e-09
-1.46114e-09
1.10755e-08
1.59908e-08
1.76214e-08
4.25654e-08
2.37274e-08
7.7237e-08
2.82351e-08
1.16246e-07
2.98535e-08
1.56329e-07
2.84185e-08
1.93589e-07
2.41673e-08
2.24901e-07
1.77382e-08
2.48082e-07
9.90316e-09
1.76232e-09
2.62129e-07
-9.18955e-10
6.55729e-09
1.76328e-08
3.52543e-08
5.89817e-08
8.72168e-08
1.1707e-07
1.45489e-07
1.69656e-07
1.87394e-07
1.97297e-07
1.9906e-07
2.57405e-07
4.24248e-08
2.26026e-07
-7.53322e-08
1.8054e-07
-1.79248e-07
1.23256e-07
-2.76323e-07
5.69047e-08
-3.70659e-07
-1.54963e-08
-4.5854e-07
-9.09857e-08
-5.23637e-07
-1.61651e-07
-5.48606e-07
-2.11284e-07
-5.17836e-07
-1.91188e-07
-4.02772e-07
-7.30003e-08
-2.2227e-07
-7.509e-08
3.40898e-07
4.86305e-08
3.19337e-07
-5.37711e-08
2.85204e-07
-1.45115e-07
2.39585e-07
-2.30705e-07
1.83497e-07
-3.14571e-07
1.1855e-07
-3.93593e-07
5.1098e-08
-4.56185e-07
-1.00134e-08
-4.87495e-07
-6.04249e-08
-4.67424e-07
-7.45437e-08
-3.88653e-07
-3.54336e-08
-2.6138e-07
-1.10524e-07
3.82629e-07
4.95506e-08
3.68886e-07
-4.00283e-08
3.44115e-07
-1.20344e-07
3.08865e-07
-1.95455e-07
2.62833e-07
-2.68539e-07
2.06769e-07
-3.37529e-07
1.44164e-07
-3.93579e-07
8.04137e-08
-4.23745e-07
2.61778e-08
-4.13188e-07
-3.79439e-09
-3.58681e-07
-7.97258e-09
-2.57202e-07
-1.18496e-07
3.94172e-07
4.59231e-08
3.86076e-07
-3.19324e-08
3.67884e-07
-1.02152e-07
3.39904e-07
-1.67474e-07
3.01501e-07
-2.30136e-07
2.52449e-07
-2.88477e-07
1.94615e-07
-3.35745e-07
1.32427e-07
-3.61558e-07
7.39257e-08
-3.54687e-07
2.9011e-08
-3.13766e-07
8.01911e-09
-2.3621e-07
-1.10477e-07
3.883e-07
3.93786e-08
3.83554e-07
-2.71868e-08
3.69095e-07
-8.76933e-08
3.45368e-07
-1.43747e-07
3.11778e-07
-1.96546e-07
2.67876e-07
-2.44576e-07
2.14791e-07
-2.8266e-07
1.56102e-07
-3.02868e-07
9.82047e-08
-2.9679e-07
4.88458e-08
-2.64407e-07
1.60298e-08
-2.03394e-07
-9.44473e-08
3.73871e-07
3.13191e-08
3.70964e-07
-2.42806e-08
3.58635e-07
-7.53634e-08
3.37185e-07
-1.22297e-07
3.06505e-07
-1.65866e-07
2.66406e-07
-2.04477e-07
2.17762e-07
-2.34016e-07
1.63492e-07
-2.48598e-07
1.08584e-07
-2.41883e-07
5.88816e-08
-2.14704e-07
2.02052e-08
-1.64718e-07
-7.42421e-08
3.56394e-07
2.27223e-08
3.54621e-07
-2.25081e-08
3.43407e-07
-6.41489e-08
3.23482e-07
-1.02371e-07
2.94714e-07
-1.37099e-07
2.57447e-07
-1.6721e-07
2.12533e-07
-1.89102e-07
1.62366e-07
-1.9843e-07
1.109e-07
-1.90417e-07
6.25541e-08
-1.66359e-07
2.20988e-08
-1.24262e-07
-5.21432e-08
3.38655e-07
1.40053e-08
3.37312e-07
-2.11652e-08
3.26803e-07
-5.364e-08
3.07735e-07
-8.3303e-08
2.80309e-07
-1.09673e-07
2.45043e-07
-1.31944e-07
2.02825e-07
-1.46884e-07
1.55828e-07
-1.51433e-07
1.07415e-07
-1.42003e-07
6.12329e-08
-1.20177e-07
2.17634e-08
-8.47929e-08
-3.03798e-08
3.19618e-07
5.71088e-09
3.18274e-07
-1.98212e-08
3.07956e-07
-4.33215e-08
2.89325e-07
-6.46723e-08
2.62686e-07
-8.30336e-08
2.28589e-07
-9.78475e-08
1.8819e-07
-1.06485e-07
1.43577e-07
-1.0682e-07
9.80239e-08
-9.64504e-08
5.50138e-08
-7.7167e-08
1.91015e-08
-4.88805e-08
-1.12783e-08
2.96212e-07
-1.62422e-09
2.94349e-07
-1.79586e-08
2.83792e-07
-3.27638e-08
2.64986e-07
-4.58669e-08
2.38527e-07
-5.65741e-08
2.05066e-07
-6.43863e-08
1.65978e-07
-6.73974e-08
1.23625e-07
-6.44666e-08
8.16039e-08
-5.44289e-08
4.35706e-08
-3.91337e-08
1.40638e-08
-1.93736e-08
2.78553e-09
2.66777e-07
-6.2724e-09
2.62442e-07
-1.3624e-08
2.49619e-07
-1.99401e-08
2.28825e-07
-2.50732e-08
2.00842e-07
-2.8591e-08
1.66783e-07
-3.03275e-08
1.28764e-07
-2.93782e-08
8.97974e-08
-2.55001e-08
5.38719e-08
-1.85034e-08
2.46006e-08
-9.86234e-09
5.75965e-09
-5.32688e-10
8.54522e-09
1.92787e-07
1.79163e-07
1.59223e-07
1.3415e-07
1.05559e-07
7.52315e-08
4.58534e-08
2.03532e-08
1.8498e-09
-8.01254e-09
-8.54522e-09
)
;

boundaryField
{
    rotor
    {
        type            calculated;
        value           nonuniform 0();
    }
    stator
    {
        type            calculated;
        value           nonuniform List<scalar> 
96
(
-3.77481e-35
0
3.00927e-35
0
0
3.31019e-35
0
0
2.8588e-35
0
-4.66892e-36
-5.5285e-38
3.60197e-36
0
-3.04233e-36
1.50463e-36
0
-6.15077e-36
1.50463e-35
-1.32243e-37
3.59789e-35
0
4.81482e-35
3.59789e-35
1.20371e-35
1.79234e-35
1.20371e-35
1.35417e-35
-6.01853e-36
6.01853e-36
-3.00927e-36
0
0
0
0
5.15131e-35
0
0
7.52316e-37
-1.57075e-36
0
-9.0278e-36
9.0278e-36
6.01853e-36
-2.40741e-35
6.01853e-36
-4.81482e-35
0
0
-4.5139e-36
-3.00927e-36
0
4.5139e-36
-3.00927e-36
3.00927e-36
9.0278e-36
0
0
0
0
0
4.5139e-36
0
4.5139e-36
0
4.5139e-36
-4.5139e-36
0
0
0
0
0
0
-4.5139e-36
0
-4.5139e-36
0
0
4.5139e-36
0
0
0
0
9.0278e-36
0
4.5139e-36
0
4.5139e-36
0
0
-4.5139e-36
0
0
0
0
-9.0278e-36
)
;
    }
    AMI1
    {
        type            cyclicAMI;
        value           nonuniform 0();
    }
    AMI2
    {
        type            cyclicAMI;
        value           nonuniform List<scalar> 
48
(
1.88415e-07
-6.801e-08
-3.53922e-07
-6.35333e-07
-8.66168e-07
-1.02521e-06
-1.10342e-06
-1.09189e-06
-9.84609e-07
-7.89619e-07
-5.32974e-07
-2.5343e-07
2.47003e-08
2.80001e-07
4.86323e-07
6.41475e-07
7.59898e-07
8.53742e-07
9.21115e-07
9.44181e-07
8.97061e-07
7.61224e-07
5.67495e-07
3.91843e-07
2.08438e-07
-6.70424e-08
-3.59361e-07
-6.36168e-07
-8.62159e-07
-1.02259e-06
-1.10602e-06
-1.10117e-06
-9.9994e-07
-8.08739e-07
-5.52477e-07
-2.70084e-07
1.23992e-08
2.74349e-07
4.88876e-07
6.52061e-07
7.77344e-07
8.75824e-07
9.44162e-07
9.63724e-07
9.09206e-07
7.63809e-07
5.60877e-07
3.78117e-07
)
;
    }
    front
    {
        type            empty;
        value           nonuniform 0();
    }
    back
    {
        type            empty;
        value           nonuniform 0();
    }
    procBoundary0to1
    {
        type            processor;
        value           nonuniform List<scalar> 8(1.68738e-06 1.34263e-06 1.11549e-06 8.20736e-07 -1.70764e-06 -1.34097e-06 -1.12295e-06 -8.3098e-07);
    }
}


// ************************************************************************* //
