/*--------------------------------*- C++ -*----------------------------------*\
| =========                 |                                                 |
| \\      /  F ield         | OpenFOAM: The Open Source CFD Toolbox           |
|  \\    /   O peration     | Version:  v1806                                 |
|   \\  /    A nd           | Web:      www.OpenFOAM.com                      |
|    \\/     M anipulation  |                                                 |
\*---------------------------------------------------------------------------*/
FoamFile
{
    version     2.0;
    format      ascii;
    class       surfaceVectorField;
    location    "3";
    object      Uf;
}
// * * * * * * * * * * * * * * * * * * * * * * * * * * * * * * * * * * * * * //

dimensions      [0 1 -1 0 0 0 0];


internalField   nonuniform List<vector> 
1460
(
(0.046486 0.0445304 1.10595e-21)
(0.0372632 0.0438795 6.93428e-22)
(0.0520255 0.0345854 -3.03153e-21)
(0.0429963 0.0347023 4.19895e-22)
(0.0559362 0.0233647 3.06741e-21)
(0.0471603 0.0252834 -1.3011e-21)
(0.058511 0.0124751 7.66968e-21)
(0.0500898 0.0147125 5.98648e-21)
(0.0595486 0.00296078 8.79296e-21)
(0.0511364 0.00483874 -2.45245e-21)
(0.0591262 -0.00451761 3.10687e-20)
(0.0504205 -0.0034531 8.39728e-21)
(0.0572496 -0.00968272 4.44687e-20)
(0.0480632 -0.00956309 2.10914e-21)
(0.054042 -0.0123578 8.27608e-21)
(0.0443201 -0.013115 6.74804e-21)
(0.0499734 -0.0124976 -1.35293e-20)
(0.0396758 -0.0139455 -1.36195e-20)
(0.0458014 -0.0103883 0)
(0.0348898 -0.0122455 0)
(0.0422765 -0.00671313 9.31522e-21)
(0.0308026 -0.00864398 2.11328e-21)
(0.0280608 -0.00412844 6.71946e-21)
(0.0398621 -0.00235465 2.40709e-20)
(0.0324857 0.0335696 0)
(0.0240267 0.0368924 0)
(0.0378309 0.0254903 3.40935e-21)
(0.0300744 0.0249011 9.65521e-22)
(0.0410443 0.0166177 2.17686e-21)
(0.0343403 0.0179943 8.17623e-21)
(0.0424133 0.00695 -3.54624e-21)
(0.0363913 0.00900892 -1.06723e-20)
(0.0416971 -0.00181834 -3.01242e-21)
(0.0365041 0.000290805 -1.74982e-20)
(0.0390131 -0.00885992 -2.03509e-20)
(0.034508 -0.0071092 -3.4816e-21)
(0.034713 -0.0135226 -3.58543e-20)
(0.0306861 -0.0124469 -7.80775e-21)
(0.0294285 -0.0154344 -1.53049e-20)
(0.0255465 -0.0152744 -7.51974e-22)
(0.0239793 -0.0146159 0)
(0.0198508 -0.0154042 -2.28389e-20)
(0.019296 -0.0115287 2.12747e-21)
(0.0145466 -0.0131002 0)
(0.0161612 -0.00703401 -1.51594e-22)
(0.0105409 -0.0090331 1.73708e-22)
(0.00845899 -0.00422041 -7.46476e-22)
(0.0150618 -0.00215927 -4.53082e-22)
(0.0198382 0.0274265 9.71753e-22)
(0.0107839 0.0329677 5.56315e-21)
(0.0260544 0.0174979 7.04993e-21)
(0.0201305 0.0179596 5.76087e-21)
(0.0292553 0.0106875 -4.71719e-21)
(0.0240743 0.0116206 2.59044e-22)
(0.0299889 0.00269166 -2.4326e-20)
(0.025571 0.00474806 1.05616e-21)
(0.0287522 -0.00471354 -1.91823e-20)
(0.0252897 -0.00267174 -2.11691e-20)
(0.0256117 -0.0104856 8.9204e-21)
(0.0229621 -0.00897986 -4.37602e-21)
(0.020917 -0.0140993 2.82006e-20)
(0.0189901 -0.0133147 1.75003e-20)
(0.0153307 -0.0152737 -7.75555e-21)
(0.0138934 -0.0153426 1.62568e-20)
(0.00975519 -0.0140663 -2.29863e-20)
(0.00840502 -0.014988 -6.54778e-21)
(0.00522262 -0.0109097 -1.9801e-21)
(0.00344477 -0.0125981 0)
(0.00244868 -0.00659812 -2.63576e-22)
(-0.000160509 -0.00872335 9.86103e-21)
(-0.00192064 -0.0042535 3.46246e-21)
(0.00176445 -0.00209058 -2.8401e-21)
(0.00854761 0.0228728 1.04106e-20)
(-0.00364497 0.0271032 -1.64631e-20)
(0.0171139 0.0113938 -8.02768e-22)
(0.0130698 0.0128154 -1.74097e-21)
(0.0202644 0.00595615 6.83342e-21)
(0.0163988 0.00656007 3.07519e-21)
(0.0205364 -0.000328636 8.34889e-21)
(0.0174644 0.00173626 1.25232e-20)
(0.0189926 -0.00667187 -4.16849e-21)
(0.0169607 -0.00435626 1.44981e-20)
(0.0157747 -0.0115433 3.92613e-21)
(0.0144925 -0.00977239 1.6876e-20)
(0.0113499 -0.0143146 5.32589e-21)
(0.01059 -0.0134069 -1.33166e-20)
(0.00637247 -0.0148354 1.8807e-20)
(0.00585474 -0.0148979 -1.21585e-20)
(0.00164986 -0.0132756 1.74405e-20)
(0.000984259 -0.0142707 1.75443e-20)
(-0.00231687 -0.0101783 1.1927e-20)
(-0.0033183 -0.0117765 -3.04811e-21)
(-0.00480052 -0.00620975 1.35202e-20)
(-0.00639015 -0.00816449 2.05797e-21)
(-0.00552616 -0.00212551 1.44331e-21)
(-0.00793284 -0.00412058 1.51431e-21)
(0.0393424 0.00167239 4.69964e-21)
(0.0271269 0.000152454 1.67128e-20)
(0.0406311 0.00442444 -1.00561e-20)
(0.0282852 0.00375123 -1.67333e-20)
(0.04358 0.00539622 0)
(0.0312544 0.00566262 1.72207e-20)
(0.0475345 0.00468176 -2.41904e-20)
(0.0353948 0.00596096 8.02127e-21)
(0.0518203 0.00274417 -6.17586e-20)
(0.0399692 0.00506531 -1.60851e-21)
(0.0558478 -9.57226e-05 -8.5642e-20)
(0.0443876 0.0033476 -3.78132e-20)
(0.0591094 -0.00392472 -3.70436e-20)
(0.0483409 0.00073152 -1.58978e-20)
(0.0610634 -0.00917724 -6.28863e-21)
(0.051544 -0.00326055 1.87535e-20)
(0.061099 -0.01639 -2.23251e-20)
(0.0532185 -0.00901881 -6.40606e-21)
(0.0593784 -0.0255245 1.16642e-20)
(0.0531595 -0.0172552 -3.78373e-21)
(0.0575604 -0.0351374 1.70511e-20)
(0.0525594 -0.0281872 6.96625e-21)
(0.0505059 -0.0356291 0)
(0.054085 -0.0423326 0)
(0.0160372 0.0020533 -4.7182e-21)
(0.00850923 0.000247448 -2.75296e-21)
(0.0189886 0.00492526 1.06818e-20)
(0.0105787 0.0038767 1.04665e-20)
(0.0231694 0.00636016 2.54115e-20)
(0.014194 0.00609713 2.84557e-22)
(0.0278427 0.00660098 3.16531e-20)
(0.0186169 0.00709204 6.30489e-22)
(0.0325201 0.00595493 2.36728e-20)
(0.0232472 0.00720749 3.80157e-20)
(0.0369339 0.00440605 3.33288e-20)
(0.0277421 0.00660787 -6.70427e-21)
(0.0409307 0.00154702 4.06221e-20)
(0.0319737 0.00496093 3.35426e-20)
(0.0441876 -0.00313177 2.07471e-20)
(0.0357925 0.0016867 -1.82453e-21)
(0.0460365 -0.0100644 1.30516e-20)
(0.038388 -0.0035159 5.51138e-21)
(0.0458741 -0.0190429 -1.30888e-20)
(0.0392479 -0.0110651 -4.31365e-21)
(0.0450203 -0.0277048 -1.30888e-20)
(0.0406037 -0.0220891 7.70407e-21)
(0.0419566 -0.0291265 0)
(0.0434406 -0.0321151 -4.04338e-22)
(0.00299926 0.00185685 1.24836e-20)
(-0.00175223 -6.29626e-05 -4.82539e-21)
(0.0058708 0.00480257 5.91317e-23)
(0.000104082 0.00340543 -6.02633e-21)
(0.00971521 0.00666206 -2.45951e-20)
(0.00321927 0.00585535 -1.71556e-20)
(0.0140179 0.00763926 6.85007e-21)
(0.00706487 0.00742442 2.08516e-20)
(0.0184365 0.00787956 7.46582e-21)
(0.0112446 0.00833172 1.43709e-20)
(0.022834 0.0071823 -6.74755e-21)
(0.0155323 0.00850241 5.65114e-21)
(0.0269559 0.00510721 -9.84937e-21)
(0.0197364 0.00756708 1.11069e-20)
(0.0303395 0.0011871 -1.83133e-20)
(0.0235493 0.00504406 -5.19023e-20)
(0.0324221 -0.00511756 -1.20147e-20)
(0.0260662 0.000646547 -6.04714e-21)
(0.0334093 -0.0139578 1.65341e-20)
(0.0260466 -0.00585859 1.64484e-21)
(0.0351871 -0.0219143 2.10116e-20)
(0.0267043 -0.0154195 2.47429e-21)
(0.0327623 -0.0237816 2.13945e-20)
(0.0392592 -0.0238582 0)
(-0.00462977 0.00151404 -2.35786e-20)
(-0.00792622 -0.000297373 -3.39035e-22)
(-0.00242593 0.00442762 -2.33854e-20)
(-0.00656718 0.00298857 -8.88539e-21)
(0.000654129 0.00657982 2.86197e-20)
(-0.00415746 0.00555021 0)
(0.00428894 0.00808094 2.86197e-20)
(-0.00100783 0.00747331 7.76708e-21)
(0.00832763 0.00890873 1.25177e-20)
(0.00263821 0.00882873 -3.11115e-20)
(0.0125355 0.00882174 2.4122e-20)
(0.00660982 0.00949184 2.00516e-22)
(0.0164965 0.00746481 -3.10771e-20)
(0.0106115 0.0091416 6.16249e-22)
(0.0195988 0.00451215 -3.99213e-20)
(0.0141857 0.00742461 -9.30236e-21)
(0.0207744 -0.00045764 1.0095e-20)
(0.0164949 0.00419003 1.69385e-21)
(0.0197727 -0.00775505 -1.04203e-20)
(0.0156811 -0.000822001 2.46584e-20)
(0.0205095 -0.0139227 5.05664e-21)
(0.0120214 -0.0065613 -3.2811e-20)
(0.0324604 -0.0141096 2.71948e-20)
(0.0134675 -0.0121857 4.56498e-21)
(0.045037 -0.0465253 4.92599e-22)
(0.044514 -0.0369394 -4.01641e-22)
(0.0347642 -0.0521767 4.92599e-22)
(0.0348782 -0.0430434 4.91026e-21)
(0.0234699 -0.0561092 6.77984e-21)
(0.0253828 -0.0474995 -5.1031e-22)
(0.0126027 -0.0586917 1.19814e-20)
(0.0147639 -0.0502321 6.82506e-21)
(0.00314342 -0.0598349 -1.25596e-21)
(0.0049704 -0.0513267 -1.99608e-21)
(-0.00438894 -0.0595764 -1.98699e-20)
(-0.00333588 -0.0507127 4.99478e-21)
(-0.00968453 -0.0578528 -9.07508e-21)
(-0.0095412 -0.0484845 1.72717e-20)
(-0.0125259 -0.0547478 -8.16258e-21)
(-0.0132379 -0.044839 4.61211e-21)
(-0.0128219 -0.0507131 1.81552e-20)
(-0.0142149 -0.0402356 7.57299e-22)
(-0.0108152 -0.0465085 3.97659e-20)
(-0.0126202 -0.0354271 2.90743e-20)
(-0.00715666 -0.0429032 8.86659e-21)
(-0.00904745 -0.0312652 1.10421e-20)
(-0.00447629 -0.0284237 2.16133e-21)
(-0.00271333 -0.0403804 3.57136e-31)
(0.0339669 -0.0322729 -1.09036e-21)
(0.0371577 -0.023675 -4.06931e-22)
(0.0256465 -0.0380172 1.96714e-21)
(0.0250925 -0.0302775 6.0439e-21)
(0.0166718 -0.0412542 -5.13737e-22)
(0.0180505 -0.0345729 4.80593e-21)
(0.0070345 -0.0425586 -6.84129e-21)
(0.00907475 -0.0365138 -8.94925e-21)
(-0.00173673 -0.041884 3.89325e-21)
(0.000368697 -0.0366404 -1.50902e-21)
(-0.00884412 -0.0392866 4.07851e-20)
(-0.00707213 -0.0347004 1.69385e-20)
(-0.0136281 -0.0350621 3.00505e-20)
(-0.0125054 -0.0309432 1.45844e-20)
(-0.0156773 -0.0298094 1.27267e-20)
(-0.0154632 -0.0258295 -1.73421e-20)
(-0.0149703 -0.0243349 1.1919e-20)
(-0.0157141 -0.0201057 7.56677e-21)
(-0.0119314 -0.0195765 1.32288e-21)
(-0.0134841 -0.0147237 -1.50036e-20)
(-0.0074035 -0.0163348 4.41631e-21)
(-0.00941338 -0.0106052 2.14425e-21)
(-0.00452509 -0.00841278 1.83932e-21)
(-0.002416 -0.0151382 9.01924e-21)
(0.027652 -0.0198681 1.49168e-21)
(0.0332729 -0.0106306 5.63233e-21)
(0.0175707 -0.0262171 6.849e-21)
(0.0180799 -0.0202501 -9.7436e-22)
(0.0107404 -0.0293855 -3.64969e-21)
(0.011658 -0.0242401 -6.92839e-21)
(0.00275468 -0.0301058 -2.27235e-21)
(0.00480464 -0.0256728 9.29711e-22)
(-0.00467513 -0.028894 1.29093e-20)
(-0.00261527 -0.0254001 1.87904e-20)
(-0.0105143 -0.0257938 -9.65742e-21)
(-0.00897089 -0.0231063 2.10767e-20)
(-0.0142351 -0.0211147 -3.35791e-20)
(-0.0133901 -0.0191652 -1.06483e-20)
(-0.0155286 -0.0154901 -2.21809e-20)
(-0.0155251 -0.0140551 -4.45232e-22)
(-0.0144137 -0.00982361 -1.93393e-20)
(-0.0152707 -0.00849675 -5.30801e-21)
(-0.0112855 -0.00517175 -1.40638e-20)
(-0.0129425 -0.00342542 -1.74554e-20)
(-0.00692929 -0.00227559 -2.23738e-22)
(-0.00905678 0.00031387 3.32382e-21)
(-0.00451575 0.00218823 -3.81927e-22)
(-0.00231497 -0.00150216 -4.51488e-22)
(0.0230791 -0.00853853 3.63752e-21)
(0.0273946 0.00377283 -1.66465e-20)
(0.0114448 -0.0172166 -1.17639e-20)
(0.0129031 -0.0131362 -8.12034e-21)
(0.00599158 -0.0203784 -1.64266e-21)
(0.00657718 -0.0165341 -7.05428e-21)
(-0.00027583 -0.0206361 2.39982e-20)
(0.00178214 -0.0175469 2.67089e-20)
(-0.00664637 -0.0191097 2.70451e-20)
(-0.00431063 -0.0170547 -4.6848e-21)
(-0.011579 -0.0159175 2.03162e-20)
(-0.00977423 -0.014611 -1.03471e-20)
(-0.0144333 -0.0114943 2.42594e-20)
(-0.0134802 -0.0107268 8.30526e-21)
(-0.0150439 -0.00646841 1.81639e-20)
(-0.0150507 -0.00597454 2.67215e-20)
(-0.0135561 -0.0016477 -3.32525e-21)
(-0.0144981 -0.00103681 -4.63714e-21)
(-0.0104843 0.00244873 -6.2824e-23)
(-0.0120509 0.00336937 -3.34506e-21)
(-0.00648008 0.00504897 3.14915e-21)
(-0.00843665 0.00656546 3.36439e-21)
(-0.00230325 0.00586702 -3.94086e-22)
(-0.00433321 0.00821695 3.01368e-21)
(0.00147383 -0.0397368 1.01538e-20)
(-8.81369e-05 -0.0273724 6.79776e-21)
(0.00443216 -0.0408977 -9.7633e-21)
(0.0036872 -0.0284181 -1.00538e-21)
(0.0056211 -0.0437747 -3.87591e-20)
(0.00578712 -0.03132 -2.71589e-21)
(0.00509432 -0.0477007 7.71079e-21)
(0.00627408 -0.0354431 5.63211e-21)
(0.00329295 -0.0519868 6.31585e-21)
(0.00553598 -0.0400396 2.75106e-20)
(0.0005045 -0.0560284 -2.0255e-20)
(0.00391059 -0.0445011 1.34645e-20)
(-0.00338616 -0.0592936 -1.78569e-20)
(0.00128696 -0.0484956 3.17497e-20)
(-0.00881305 -0.0612276 -1.78569e-20)
(-0.00283235 -0.0517136 6.38772e-21)
(-0.0162707 -0.0612038 -2.01929e-20)
(-0.00880457 -0.0533661 2.52638e-20)
(-0.0256531 -0.0593886 -1.63391e-20)
(-0.0173001 -0.0532619 -5.44546e-21)
(-0.0354501 -0.0574688 8.89336e-21)
(-0.0284558 -0.0525825 5.55601e-21)
(-0.0359952 -0.0504143 2.87728e-21)
(0.00196048 -0.0160077 -4.46079e-21)
(8.69843e-05 -0.00837402 6.60643e-21)
(0.00501123 -0.0189109 6.14816e-21)
(0.00388469 -0.0103894 1.8071e-21)
(0.00662112 -0.0230877 4.22154e-20)
(0.00628365 -0.0140067 -3.91036e-21)
(0.00701086 -0.0278054 2.56458e-20)
(0.00744249 -0.0184802 2.30182e-20)
(0.00646424 -0.0325567 3.57074e-20)
(0.00768771 -0.0231972 -2.71704e-20)
(0.00493515 -0.0370517 6.68326e-20)
(0.00714718 -0.0277976 2.19945e-20)
(0.00199266 -0.0411001 5.66245e-20)
(0.00546371 -0.0321225 -7.96435e-22)
(-0.00286392 -0.0443631 5.05535e-20)
(0.00204166 -0.0359828 -3.28517e-20)
(-0.0100269 -0.0461781 4.19849e-20)
(-0.00337934 -0.0385538 8.53055e-21)
(-0.0192328 -0.0459563 1.65514e-20)
(-0.0111846 -0.0393682 3.56336e-20)
(-0.028055 -0.0450267 0)
(-0.0224396 -0.0406874 0)
(-0.0295344 -0.0419478 0)
(0.00178556 -0.00269679 1.28705e-20)
(-0.000191105 0.00208493 -4.10908e-22)
(0.00490549 -0.00556111 -8.37587e-21)
(0.00344277 0.000244592 9.30174e-21)
(0.00692872 -0.00946732 -2.30381e-20)
(0.00604241 -0.00290585 -1.76465e-20)
(0.00804102 -0.0138638 -2.98019e-20)
(0.00776048 -0.00683379 -3.85782e-20)
(0.00835989 -0.0184076 -4.13252e-20)
(0.00877238 -0.0111297 6.17615e-21)
(0.00766264 -0.0229335 -4.68681e-20)
(0.00897877 -0.0155554 -1.29384e-21)
(0.00549221 -0.0271419 -9.19936e-20)
(0.00799436 -0.019884 -3.52246e-20)
(0.00138877 -0.0305401 -7.54973e-20)
(0.00532271 -0.0237592 -6.89618e-20)
(-0.00514796 -0.0325732 1.446e-21)
(0.000714239 -0.0262537 9.03963e-21)
(-0.0142178 -0.0335045 1.90985e-20)
(-0.00602974 -0.026152 2.17064e-21)
(-0.0223202 -0.035248 0)
(-0.0158201 -0.0267907 1.80974e-20)
(-0.0242212 -0.0328253 0)
(0.00146704 0.00501301 -4.10024e-21)
(-0.000399068 0.0082732 3.13044e-21)
(0.00452805 0.00278836 6.75808e-23)
(0.00302333 0.00692916 -3.72546e-22)
(0.00682617 -0.000363452 -3.32035e-20)
(0.00571286 0.00448396 3.70411e-22)
(0.00844312 -0.00410043 -2.46274e-21)
(0.00777036 0.00125263 -6.36215e-20)
(0.00932891 -0.00827293 4.6529e-20)
(0.00920879 -0.00250811 1.02486e-20)
(0.00922909 -0.0126182 9.76124e-21)
(0.00989213 -0.00662257 3.4928e-20)
(0.00777453 -0.0166848 -1.18242e-20)
(0.00948646 -0.0107548 7.29716e-21)
(0.00464775 -0.0198158 1.74538e-20)
(0.00763123 -0.0144021 1.38533e-20)
(-0.00054353 -0.0209304 8.14063e-21)
(0.00420112 -0.0167038 -2.5507e-20)
(-0.00807309 -0.0198369 -6.17271e-22)
(-0.00102247 -0.0157693 -1.89392e-20)
(-0.0143692 -0.0205319 1.82098e-20)
(-0.00690548 -0.0119961 6.70956e-21)
(-0.0125122 -0.0134259 0)
(0.00190462 0.0152755 -1.02321e-20)
(-0.00553571 0.0159744 -1.2224e-20)
(0.0114118 0.00702989 4.07845e-21)
(0.00919014 0.00831245 -2.68433e-21)
(0.0138353 0.00265337 8.7765e-21)
(0.0111615 0.00321641 -1.38234e-21)
(0.0137608 -0.00210366 1.98915e-20)
(0.0117617 -0.000184531 0)
(0.0121121 -0.00735401 3.72837e-20)
(0.0111848 -0.00503583 2.00059e-20)
(0.0088856 -0.0115687 -8.26375e-22)
(0.00877075 -0.0095867 -9.27935e-21)
(0.0046674 -0.0139295 -3.12578e-20)
(0.00500452 -0.0127474 -3.86429e-20)
(8.41794e-05 -0.0142266 -1.31803e-20)
(0.000514574 -0.0139919 7.42517e-21)
(-0.0042653 -0.0126447 -3.06637e-21)
(-0.00396033 -0.0132736 -4.40724e-21)
(-0.00765736 -0.00966382 -1.33601e-20)
(-0.00778689 -0.0109504 -2.70953e-20)
(-0.00976496 -0.00597817 -1.02986e-20)
(-0.0104947 -0.00763021 -7.36114e-21)
(-0.0118945 -0.00394506 -3.01513e-22)
(-0.0104614 -0.00220743 -3.28015e-22)
(0.00210235 0.0105209 -4.6441e-21)
(-0.00327147 0.0114452 -2.34111e-21)
(0.00833345 0.00434922 -7.98626e-21)
(0.00686116 0.00588684 2.06394e-21)
(0.00945694 0.00073051 -1.05752e-20)
(0.00768662 0.00150617 -1.0634e-20)
(0.0091772 -0.00297106 0)
(0.00800983 -0.00118383 0)
(0.00761475 -0.00720966 -2.7126e-20)
(0.00738653 -0.00506929 0)
(0.00458344 -0.010745 -4.84229e-20)
(0.00516409 -0.0088014 -5.44654e-20)
(0.000571262 -0.0127981 9.76858e-23)
(0.00168223 -0.0114988 3.99467e-20)
(-0.00380673 -0.0130644 1.68381e-20)
(-0.00249673 -0.0125784 2.1707e-21)
(-0.0078283 -0.0116436 -2.85829e-20)
(-0.00666356 -0.01198 -4.45736e-21)
(-0.0109406 -0.00896519 -2.14624e-20)
(-0.0102215 -0.00996266 -3.74576e-21)
(-0.0128988 -0.00562443 2.71359e-21)
(-0.0127633 -0.00700834 1.22845e-20)
(-0.014141 -0.00369688 4.0525e-21)
(-0.0136378 -0.00216395 -2.76345e-22)
(0.00182816 0.00745628 6.54567e-21)
(-0.00195056 0.00796548 -2.23634e-21)
(0.00606656 0.00296975 0)
(0.00514901 0.00426298 -1.24527e-20)
(0.00659382 -0.000135152 0)
(0.00540914 0.000739066 1.42675e-20)
(0.00625739 -0.00317964 0)
(0.00564641 -0.00153848 -1.41558e-20)
(0.00480909 -0.00662565 -2.73406e-20)
(0.00496266 -0.00470648 0)
(0.00208206 -0.00953184 3.40898e-20)
(0.00295392 -0.00776205 -3.37926e-20)
(-0.00162743 -0.0112845 4.28414e-20)
(-0.00019055 -0.00999816 3.92059e-20)
(-0.00565679 -0.0115368 -1.90061e-20)
(-0.00396784 -0.0109529 3.14978e-21)
(-0.00939643 -0.0103503 2.06563e-20)
(-0.00778926 -0.0104964 -3.97401e-21)
(-0.0123583 -0.00804804 3.01276e-20)
(-0.0111075 -0.00880878 2.32442e-20)
(-0.0142725 -0.00510848 1.36203e-20)
(-0.0135457 -0.00626934 -3.45836e-21)
(-0.0149589 -0.00334804 4.06445e-21)
(-0.0151261 -0.00199975 7.1053e-21)
(0.00148685 0.00518781 -2.13849e-20)
(-0.00116229 0.00542827 -1.10613e-20)
(0.00443772 0.00206354 1.85627e-21)
(0.00381104 0.00301646 -3.27924e-21)
(0.00475629 -0.000442636 1.12344e-22)
(0.0039128 0.000392341 -1.45886e-22)
(0.00440457 -0.00299791 -1.42323e-20)
(0.00410553 -0.00155535 1.71397e-20)
(0.00304871 -0.00582432 -6.1694e-21)
(0.00336683 -0.00416138 -1.7397e-20)
(0.000568221 -0.00822672 -2.93932e-20)
(0.00154687 -0.00665687 -6.55363e-21)
(-0.00274821 -0.00969651 -7.6064e-22)
(-0.00126265 -0.00851175 -1.97935e-20)
(-0.00638403 -0.0099463 1.8737e-20)
(-0.00463961 -0.00934409 -1.29077e-20)
(-0.00981085 -0.00898161 -1.5053e-21)
(-0.00809415 -0.00900473 -2.12269e-22)
(-0.0125947 -0.00704226 -1.04312e-20)
(-0.0111505 -0.0076146 2.50317e-21)
(-0.0144857 -0.00450634 -1.32533e-20)
(-0.0134663 -0.0054627 -1.43948e-20)
(-0.0148914 -0.00293012 -4.16362e-21)
(-0.0154326 -0.00176087 1.06722e-21)
(0.00119539 0.0035075 8.59194e-21)
(-0.000673805 0.00365075 7.70381e-21)
(0.00326818 0.00138799 -5.0693e-21)
(0.00279543 0.00205072 9.69086e-21)
(0.00349397 -0.000541678 1.75184e-20)
(0.00285618 0.000183146 -1.47858e-20)
(0.00311611 -0.00267226 1.41872e-20)
(0.00298319 -0.00145167 1.38384e-20)
(0.00184137 -0.00498593 -1.7781e-20)
(0.00221154 -0.00359208 2.06213e-20)
(-0.000403861 -0.00696717 3.04094e-21)
(0.000553639 -0.00562027 2.54255e-20)
(-0.00335088 -0.00819726 -3.21221e-20)
(-0.00194879 -0.00715657 1.04842e-21)
(-0.00660572 -0.00843723 -3.20933e-20)
(-0.00495557 -0.00786557 -7.84325e-21)
(-0.00971353 -0.00765943 3.82397e-21)
(-0.00805374 -0.00761141 1.87718e-22)
(-0.0122956 -0.00603966 -1.26172e-21)
(-0.0108373 -0.00646914 2.23069e-21)
(-0.0141137 -0.00387504 -5.33782e-21)
(-0.0129995 -0.0046594 -4.69221e-21)
(-0.0143903 -0.00248466 -2.84055e-21)
(-0.0151032 -0.00148223 -1.21388e-20)
(0.000942871 0.00232844 9.43557e-21)
(-0.000356578 0.00243997 3.07597e-20)
(0.00238555 0.000875248 0)
(0.0020361 0.00132932 2.58382e-20)
(0.00252611 -0.000585224 -1.81446e-20)
(0.00204487 1.60787e-05 -6.3583e-21)
(0.00211273 -0.00233665 2.03493e-20)
(0.00208504 -0.00132336 -2.95853e-20)
(0.00091243 -0.00421938 6.42879e-20)
(0.00129924 -0.00306823 4.53729e-21)
(-0.00110816 -0.00583854 2.37992e-20)
(-0.000222284 -0.00470851 2.05949e-20)
(-0.00373356 -0.00686041 2.60831e-20)
(-0.00246018 -0.00596793 3.07132e-21)
(-0.00663509 -0.00707443 2.47752e-20)
(-0.00513384 -0.00655861 2.83512e-20)
(-0.00943242 -0.00644317 -1.43211e-21)
(-0.00790011 -0.00636016 -3.69215e-21)
(-0.0117958 -0.00509351 -1.06812e-21)
(-0.010414 -0.00541815 -1.19323e-20)
(-0.0135032 -0.00325794 -2.30091e-21)
(-0.0124038 -0.00390172 -5.59258e-21)
(-0.013724 -0.00204596 1.20533e-21)
(-0.0144827 -0.00119236 3.78246e-21)
(0.000743775 0.00152222 4.73482e-20)
(-0.000145823 0.00162317 1.23257e-21)
(0.00169728 0.000492162 1.95502e-20)
(0.00146758 0.000825472 2.70983e-20)
(0.00174363 -0.000609212 -1.74584e-20)
(0.00140385 -0.00011458 1.93495e-20)
(0.00128896 -0.00202698 -4.56702e-20)
(0.00134809 -0.00118823 3.21999e-20)
(0.000141865 -0.00355381 -3.97019e-20)
(0.000554773 -0.00259259 -1.77076e-20)
(-0.00167721 -0.00486251 -2.23395e-22)
(-0.000850847 -0.00391938 -1.07563e-20)
(-0.00402191 -0.00569754 5.42319e-21)
(-0.00287 -0.004938 1.37543e-20)
(-0.00660857 -0.00587616 0)
(-0.00525639 -0.00541974 -3.02132e-21)
(-0.00911598 -0.00535732 -1.42552e-20)
(-0.00772584 -0.00525714 -2.86766e-20)
(-0.0112551 -0.00423175 -1.62825e-20)
(-0.00998617 -0.00447842 1.93095e-20)
(-0.012838 -0.00268093 -2.14472e-21)
(-0.0118006 -0.00320648 -5.29429e-21)
(-0.0130309 -0.00163231 1.09093e-21)
(-0.0137764 -0.000909596 -1.22202e-21)
(0.000585071 0.000980436 -1.98909e-20)
(-2.89752e-06 0.00107634 -1.80662e-21)
(0.00117164 0.000233545 2.68211e-20)
(0.00104874 0.000500296 -1.87544e-20)
(0.0011151 -0.000603535 6.98151e-20)
(0.000908528 -0.000187818 1.00186e-21)
(0.000617094 -0.00173515 6.07568e-20)
(0.000764343 -0.00103255 4.46853e-20)
(-0.000475227 -0.00295862 1.15182e-20)
(-2.90843e-05 -0.00214978 1.69126e-20)
(-0.00214148 -0.00401443 2.82337e-21)
(-0.00133875 -0.00321278 -2.46203e-20)
(-0.00424802 -0.00468644 5.45402e-21)
(-0.003173 -0.0040313 5.43945e-21)
(-0.00656328 -0.00482858 -3.18497e-20)
(-0.00531618 -0.00441765 -3.41581e-21)
(-0.00881185 -0.00439899 5.01352e-21)
(-0.00752696 -0.00428166 3.00331e-20)
(-0.010747 -0.00346106 3.07857e-20)
(-0.00955709 -0.00363797 1.86875e-20)
(-0.0121938 -0.00215413 -2.11026e-21)
(-0.0112016 -0.00257811 -3.16899e-21)
(-0.0123331 -0.00125182 1.10123e-21)
(-0.0130718 -0.000644908 1.09615e-21)
(0.000469976 0.000636199 -5.84834e-22)
(0.000104162 0.000710124 -2.37065e-20)
(0.000778668 8.808e-05 -4.50637e-20)
(0.000757884 0.000325535 -1.99441e-20)
(0.000639141 -0.000547061 -2.47293e-20)
(0.000569217 -0.000182752 -2.86854e-20)
(0.000112648 -0.00143409 4.7981e-22)
(0.00036245 -0.000829772 -5.30435e-20)
(-0.00092509 -0.00240018 -1.9369e-20)
(-0.000416505 -0.00170359 -3.72436e-20)
(-0.00245975 -0.00324328 -2.23269e-20)
(-0.00163891 -0.00254269 -2.02203e-20)
(-0.00437019 -0.00378204 -3.45444e-21)
(-0.00331156 -0.00319464 4.93648e-21)
(-0.00645239 -0.0038944 5.87703e-20)
(-0.005243 -0.00350543 -2.75029e-20)
(-0.00847089 -0.00354077 4.39203e-20)
(-0.00722519 -0.00339727 3.25408e-20)
(-0.0102153 -0.00276511 -1.53938e-20)
(-0.00904524 -0.00287411 -2.82719e-20)
(-0.01153 -0.00167509 0)
(-0.0105256 -0.00200432 -1.91119e-21)
(-0.0115501 -0.000905247 0)
(-0.0123361 -0.00040335 0)
(0.000406891 0.000431228 -4.33339e-20)
(0.000187059 0.000446425 -2.22287e-20)
(0.000536709 5.78693e-05 -3.37796e-21)
(0.000568843 0.000245415 0)
(0.000355522 -0.000408217 -5.7074e-20)
(0.000371567 -0.000114799 -3.39278e-21)
(-0.000176327 -0.00108603 -9.12689e-20)
(0.000123032 -0.000588835 -2.62277e-20)
(-0.00116206 -0.00184029 -3.81876e-20)
(-0.000637565 -0.00125363 -5.56951e-21)
(-0.00256726 -0.00250243 7.08661e-21)
(-0.00178182 -0.0019096 1.76589e-20)
(-0.00430034 -0.00293321 -1.91957e-20)
(-0.00331496 -0.00242042 2.8967e-20)
(-0.00617303 -0.00302798 -5.44795e-20)
(-0.00505702 -0.002671 1.68404e-20)
(-0.00798337 -0.00274828 -4.00897e-20)
(-0.00682595 -0.00259027 -2.42233e-20)
(-0.00954556 -0.00212321 -1.46875e-20)
(-0.00843774 -0.00217708 3.30939e-21)
(-0.0107248 -0.00123544 -1.91984e-21)
(-0.00973892 -0.00148048 -3.78352e-21)
(-0.010626 -0.000593512 0)
(-0.0114477 -0.000189168 0)
(0.000374948 0.000282932 2.13557e-20)
(0.000167692 0.000169837 4.2406e-20)
(0.000389568 6.83882e-05 0)
(0.000252768 5.13838e-05 0)
(0.000195522 -0.00024857 2.80486e-20)
(-7.09599e-06 -0.000219118 0)
(-0.000343607 -0.000750687 6.02185e-20)
(-0.000367963 -0.000555309 2.45232e-20)
(-0.00127742 -0.00132396 5.0648e-20)
(-0.00113606 -0.00102645 3.59499e-20)
(-0.00259542 -0.00184669 3.95593e-20)
(-0.00219362 -0.00147716 1.37905e-20)
(-0.00417095 -0.00218812 6.54919e-20)
(-0.00351758 -0.00181834 2.58537e-20)
(-0.0058491 -0.00226882 4.73957e-20)
(-0.00495371 -0.00196189 2.16151e-20)
(-0.00744804 -0.00205257 1.94315e-20)
(-0.00635016 -0.00186294 3.14637e-21)
(-0.00880721 -0.00155879 1.45281e-20)
(-0.00756196 -0.00152392 3.19985e-20)
(-0.00980768 -0.000848681 -1.86344e-21)
(-0.0084723 -0.0009853 1.11625e-20)
(-0.00900807 -0.000319727 -3.89755e-21)
(-0.0103894 -7.71529e-06 1.05393e-21)
(5.64963e-05 -2.83313e-05 2.1049e-20)
(-0.000170773 -0.000244086 0)
(-0.000543142 -0.00049763 -3.661e-21)
(-0.00117483 -0.000836469 -5.23397e-23)
(-0.00206496 -0.001192 -1.12899e-21)
(-0.00317444 -0.00148886 -1.55997e-22)
(-0.00438695 -0.00164681 -1.82051e-20)
(-0.00557521 -0.00162158 -2.298e-20)
(-0.00660861 -0.00140168 1.56974e-20)
(-0.00737978 -0.00101114 2.88697e-20)
(-0.00781578 -0.000500163 9.17561e-21)
(-0.0078951 6.38827e-05 1.2859e-22)
(-0.00989732 0.00121445 1.45705e-20)
(-0.0120286 -0.000410572 -3.12075e-22)
(-0.00824025 0.00408811 1.47364e-20)
(-0.0110677 0.00268805 1.48211e-20)
(-0.00576363 0.00639006 -2.10539e-20)
(-0.00922794 0.00525623 -2.54628e-20)
(-0.0026516 0.00816717 -5.24539e-20)
(-0.00667794 0.00734217 -2.11749e-20)
(0.000953259 0.00936551 -4.37539e-20)
(-0.00354141 0.00895755 -3.0601e-20)
(0.00479445 0.00976879 -2.33978e-20)
(5.0796e-05 0.0099715 -5.4836e-20)
(0.00847057 0.00907092 2.31197e-20)
(0.00376335 0.0100892 -1.96687e-20)
(0.0113849 0.00709233 3.38095e-20)
(0.0071261 0.00905035 7.63007e-20)
(0.0124821 0.00381609 1.86831e-20)
(0.00944221 0.00687061 0)
(0.00978095 0.00043002 5.54717e-21)
(0.00962081 0.0036546 1.03992e-21)
(0.00269559 -0.00131997 -3.78157e-20)
(0.00603661 0.00137279 1.10446e-21)
(0.00252844 0.000136695 -2.15998e-20)
(-0.0133092 0.00104069 -1.39944e-22)
(-0.0144257 -0.000452569 2.72724e-21)
(-0.0120815 0.00381571 -2.56101e-20)
(-0.0137844 0.00245568 -1.20712e-20)
(-0.0101312 0.00614503 -2.56101e-20)
(-0.0123916 0.00496188 -1.03495e-21)
(-0.00753879 0.00805058 7.33993e-22)
(-0.0103518 0.00708028 -2.86126e-20)
(-0.00439308 0.0094697 -4.1819e-20)
(-0.00771764 0.00881094 1.2409e-20)
(-0.000877031 0.0101949 -5.1522e-20)
(-0.00456868 0.0100207 -1.64872e-20)
(0.00257892 0.00999573 3.41045e-20)
(-0.00116618 0.0104736 4.56055e-20)
(0.00536956 0.00876881 4.25413e-20)
(0.0021058 0.00993403 1.58793e-21)
(0.00697743 0.00644235 -1.766e-20)
(0.00457092 0.0083014 0)
(0.00645429 0.00380035 -3.30878e-21)
(0.00570155 0.00574507 1.99098e-21)
(0.00409318 0.00266104 1.52786e-20)
(0.00453893 0.00336901 2.14258e-20)
(0.00220649 0.001278 0)
(-0.0150283 0.00094918 -9.2496e-21)
(-0.0154016 -0.000424285 4.15142e-21)
(-0.0141568 0.00357512 1.26274e-20)
(-0.015023 0.00226689 9.24699e-22)
(-0.0126337 0.00584693 -4.00647e-21)
(-0.0139753 0.00464433 2.20481e-20)
(-0.010519 0.00776622 -1.71478e-20)
(-0.0123405 0.00670455 -2.82677e-20)
(-0.0078409 0.00926656 3.76597e-20)
(-0.0101435 0.00842775 3.27646e-20)
(-0.00471766 0.0101657 8.15128e-20)
(-0.00741886 0.00969079 2.63153e-20)
(-0.00145281 0.0102399 1.32113e-20)
(-0.00434068 0.0102831 1.14243e-20)
(0.00149857 0.00931002 -4.11313e-20)
(-0.00121283 0.00996784 -3.30015e-20)
(0.00352141 0.00744668 1.98595e-20)
(0.00140423 0.0086642 0)
(0.00397752 0.00513316 2.62014e-20)
(0.0031427 0.00650964 -3.12657e-20)
(0.0027562 0.00275149 6.09614e-21)
(0.0031716 0.00411734 6.12893e-21)
(0.00197461 0.00156157 0)
(-0.0155283 0.000904954 1.44817e-20)
(-0.0154517 -0.000335466 -6.81789e-21)
(-0.0149178 0.00333561 1.03723e-20)
(-0.0152628 0.00210819 1.32659e-20)
(-0.0137117 0.00548198 -2.26573e-21)
(-0.0144542 0.0043077 -1.87785e-20)
(-0.0119534 0.00732146 2.17434e-20)
(-0.0131001 0.00623413 2.144e-20)
(-0.00965779 0.00878082 2.11426e-20)
(-0.0112258 0.00785363 2.0969e-20)
(-0.00689633 0.00969679 -4.38689e-20)
(-0.00884912 0.00905139 -4.14779e-20)
(-0.00388322 0.00985891 -3.49039e-20)
(-0.00608942 0.00964174 -3.5996e-20)
(-0.000993678 0.00910774 8.39613e-21)
(-0.00317747 0.00941155 3.12941e-20)
(0.00128885 0.00749858 -5.12674e-20)
(-0.000580068 0.00829537 -6.70191e-21)
(0.00247965 0.00532615 -5.12674e-20)
(0.00140376 0.00641314 -2.57699e-20)
(0.00211918 0.0030014 0)
(0.0021601 0.00418798 1.22469e-20)
(0.0016319 0.0015236 -6.01769e-21)
(-0.0153215 0.000889625 -8.12516e-21)
(-0.0150097 -0.00021152 -5.60072e-21)
(-0.0148788 0.0030926 -1.59804e-20)
(-0.0149397 0.00196882 0)
(-0.0138749 0.00506122 4.99163e-21)
(-0.0142851 0.00395896 4.50612e-21)
(-0.0123572 0.00675218 2.06337e-20)
(-0.0131148 0.00570757 1.62078e-20)
(-0.0103436 0.00808593 -4.20654e-20)
(-0.0114647 0.00716706 4.5438e-21)
(-0.00788903 0.00891974 -3.35512e-20)
(-0.00935679 0.008232 2.29949e-21)
(-0.00515773 0.00907526 3.05886e-20)
(-0.00688903 0.00874704 -2.53161e-20)
(-0.00245654 0.00842266 1.62369e-20)
(-0.00424076 0.00853797 -1.48439e-20)
(-0.000172384 0.007012 1.98839e-20)
(-0.00179653 0.00755728 -6.77105e-21)
(0.00130997 0.00506994 3.88122e-20)
(0.000214292 0.0059059 1.97838e-20)
(0.00153922 0.00280112 6.4335e-21)
(0.00131954 0.00388399 1.86359e-20)
(0.0012565 0.00134514 -6.07977e-21)
(-0.0147645 0.00089092 2.58301e-21)
(-0.0143562 -7.35516e-05 1.37964e-21)
(-0.0144279 0.00285347 2.06851e-20)
(-0.0143547 0.00184498 1.09256e-20)
(-0.0135586 0.00461735 1.58259e-20)
(-0.0138024 0.00361445 2.07865e-20)
(-0.0122055 0.00612318 8.74953e-24)
(-0.0127617 0.0051668 -4.88296e-21)
(-0.0104007 0.00729336 4.93305e-20)
(-0.0112764 0.00644658 4.87885e-21)
(-0.00820325 0.00800557 1.0472e-20)
(-0.0093803 0.00735761 5.2961e-20)
(-0.00575146 0.00811627 -7.23717e-20)
(-0.00716742 0.00777296 -1.02063e-20)
(-0.00329269 0.0075263 -3.82149e-20)
(-0.00478302 0.00755614 -8.81592e-21)
(-0.00113302 0.00628155 -6.27021e-21)
(-0.00254264 0.00667655 -6.59285e-21)
(0.000429924 0.00455263 5.482e-22)
(-0.000613671 0.00521426 -5.90381e-21)
(0.0010124 0.00244147 6.29445e-21)
(0.000626589 0.00338689 6.16241e-20)
(0.000886265 0.00109514 4.80384e-20)
(-0.0140809 0.000901722 9.72128e-21)
(-0.0136472 6.43961e-05 -1.22784e-21)
(-0.0138149 0.00262566 1.09794e-20)
(-0.0136823 0.0017356 -7.48862e-22)
(-0.0130414 0.0041778 0)
(-0.0132023 0.00328534 2.33406e-21)
(-0.0118192 0.00549349 0)
(-0.0122601 0.00464313 -4.45791e-21)
(-0.0101809 0.00649497 8.30823e-21)
(-0.0109055 0.00574116 -2.6101e-20)
(-0.00819848 0.00707855 3.1822e-20)
(-0.00918081 0.00649902 -2.0925e-20)
(-0.0059936 0.00712998 5.35524e-20)