/*--------------------------------*- C++ -*----------------------------------*\
| =========                 |                                                 |
| \\      /  F ield         | OpenFOAM: The Open Source CFD Toolbox           |
|  \\    /   O peration     | Version:  v1806                                 |
|   \\  /    A nd           | Web:      www.OpenFOAM.com                      |
|    \\/     M anipulation  |                                                 |
\*---------------------------------------------------------------------------*/
FoamFile
{
    version     2.0;
    format      ascii;
    class       volScalarField;
    location    "5";
    object      p;
}
// * * * * * * * * * * * * * * * * * * * * * * * * * * * * * * * * * * * * * //

dimensions      [0 2 -2 0 0 0 0];


internalField   nonuniform List<scalar> 
768
(
-0.000533159
-3.16474e-05
0.000442666
0.00101677
0.00158191
0.00210111
0.00252353
0.00282746
0.00277242
0.00243672
0.00182861
0.00103883
-0.000521523
4.18767e-05
0.000581922
0.00113044
0.00165502
0.00211971
0.00248365
0.0026864
0.00270065
0.00239107
0.00181416
0.0010523
-0.000503965
7.22017e-05
0.000614044
0.00113632
0.00162292
0.00204538
0.00236816
0.00254555
0.00254693
0.00226573
0.0017335
0.00103498
-0.000497531
6.58379e-05
0.00059332
0.00108737
0.00153783
0.00192226
0.00221187
0.00237584
0.00237578
0.00214331
0.00167771
0.00103653
9.30464e-05
-0.00101672
-0.00208097
-0.00299621
-0.0036918
-0.00411683
-0.0042426
-0.00406291
-0.00359513
-0.00287635
-0.0019963
-0.00109713
0.000154318
-0.000875263
-0.00183948
-0.0026559
-0.00327504
-0.00365379
-0.00376665
-0.00360858
-0.00320006
-0.00257798
-0.00181969
-0.0010355
0.000102344
-0.000849005
-0.00170506
-0.00241296
-0.00294939
-0.00327823
-0.00337637
-0.00323775
-0.00288248
-0.00234279
-0.00168289
-0.000987583
-7.03305e-05
-0.000913308
-0.00164666
-0.00224072
-0.0026935
-0.00297107
-0.00305163
-0.00292813
-0.00261493
-0.00214288
-0.00156367
-0.000942441
-0.000363803
0.000166199
0.000650335
0.00116712
0.00168606
0.00216642
0.00256034
0.00284367
0.00277431
0.0024311
0.00185298
0.00107672
-0.000343054
0.000228232
0.000748349
0.00126055
0.0017504
0.00218491
0.00252604
0.00271514
0.00271931
0.00240493
0.00184516
0.00110863
-0.000339595
0.000232611
0.000756603
0.00125354
0.00171392
0.00211248
0.0024164
0.00258328
0.0025795
0.00230365
0.00178616
0.00109834
-0.000341715
0.000211133
0.000721672
0.00119708
0.00162721
0.00199253
0.00226693
0.00242203
0.00241791
0.00219431
0.00174631
0.00112004
6.73223e-05
-0.00104402
-0.00211159
-0.00303821
-0.00375729
-0.00421918
-0.00439283
-0.00425965
-0.00381349
-0.00307224
-0.00217713
-0.00127724
0.000124272
-0.000913472
-0.00188402
-0.00271241
-0.00335337
-0.00376516
-0.00391988
-0.0037977
-0.00341468
-0.00277799
-0.00199934
-0.0012107
6.67034e-05
-0.000898495
-0.0017621
-0.00248155
-0.00303756
-0.00339556
-0.00353065
-0.00343275
-0.00308883
-0.00254122
-0.00186488
-0.00115706
-0.000109738
-0.000973604
-0.00171454
-0.00231929
-0.00278896
-0.00309145
-0.00320285
-0.00311078
-0.00280777
-0.00233088
-0.00173888
-0.00110614
-0.000491972
4.51807e-05
0.000549253
0.00101531
0.00143355
0.00178556
0.00204854
0.00220075
0.00220405
0.00202969
0.00168672
0.00119609
-0.000485057
2.09729e-05
0.00049833
0.000937865
0.00132808
0.00165354
0.00189512
0.00202962
0.00205148
0.00192811
0.00170254
0.00142588
-0.00047738
-1.8764e-06
0.000448729
0.000864453
0.0012306
0.00153478
0.00176139
0.00189338
0.00192537
0.00184391
0.00168943
0.00148796
-0.000468246
-2.21086e-05
0.000403366
0.000799446
0.00114485
0.0014322
0.0016486
0.00178055
0.0018238
0.00177697
0.0016761
0.00154812
-0.000459116
-3.80698e-05
0.000366147
0.000741208
0.0010715
0.00134579
0.00155562
0.00168876
0.0017433
0.00172407
0.00166204
0.00157718
-0.000450769
-5.08368e-05
0.000334987
0.000693191
0.00100984
0.00127393
0.00148061
0.00161543
0.00168001
0.00168222
0.00164858
0.00159075
-0.000443709
-6.11013e-05
0.000309462
0.00065418
0.000960241
0.00121721
0.00141852
0.00155802
0.00163053
0.00164916
0.00163548
0.00159727
-0.000438229
-6.94152e-05
0.000288976
0.000623148
0.000921134
0.00117268
0.00137122
0.00151255
0.00159238
0.00162358
0.00162359
0.00160038
-0.000434486
-7.622e-05
0.000272927
0.000599151
0.00089134
0.00113904
0.00133633
0.0014779
0.00156403
0.00160454
0.00161412
0.00160171
-0.000432556
-8.18746e-05
0.000260772
0.000581334
0.000869883
0.00111529
0.00131098
0.00145372
0.00154436
0.00159141
0.00160755
0.00160246
-0.000432435
-8.66425e-05
0.000252126
0.000568999
0.000856179
0.00109948
0.00129488
0.00143834
0.00153243
0.00158372
0.00160402
0.00160345
-0.000433383
-9.00415e-05
0.000247417
0.000562857
0.000848449
0.00109119
0.00128605
0.00143136
0.00152713
0.00158053
0.00160292
0.0016048
-0.000413052
-0.0010409
-0.00162951
-0.00211283
-0.00248727
-0.00271666
-0.0027792
-0.00266479
-0.00238708
-0.00197009
-0.00145697
-0.000897564
-0.00076993
-0.00117629
-0.00162978
-0.00201435
-0.00231989
-0.00250597
-0.00255091
-0.00244714
-0.00219319
-0.00182031
-0.00136167
-0.00085331
-0.000998059
-0.00127655
-0.0016258
-0.00193531
-0.00218324
-0.00233197
-0.00236029
-0.002259
-0.00202834
-0.00169119
-0.00127536
-0.000812942
-0.00114594
-0.00134498
-0.00161893
-0.0018701
-0.00207157
-0.0021892
-0.00220276
-0.0021026
-0.00188994
-0.00158143
-0.00120058
-0.000775213
-0.00125319
-0.00139503
-0.00161077
-0.00181628
-0.00198079
-0.00207308
-0.00207415
-0.00197449
-0.00177551
-0.0014897
-0.00113707
-0.000741689
-0.00132922
-0.00143285
-0.0016036
-0.00177273
-0.0019078
-0.00197973
-0.00197057
-0.00187097
-0.00168245
-0.00141447
-0.00108434
-0.000713059
-0.00138279
-0.00146118
-0.00159807
-0.00173836
-0.00185007
-0.00190583
-0.0018885
-0.00178962
-0.00160826
-0.00135412
-0.00104167
-0.000689522
-0.00142039
-0.00148197
-0.00159401
-0.00171193
-0.00180543
-0.00184853
-0.00182481
-0.00172568
-0.00155048
-0.00130701
-0.00100825
-0.000671002
-0.00144605
-0.00149657
-0.00159093
-0.00169217
-0.00177195
-0.00180554
-0.00177708
-0.00167778
-0.00150717
-0.00127174
-0.000983287
-0.000657291
-0.00146246
-0.00150589
-0.00158838
-0.00167796
-0.00174807
-0.00177497
-0.00174335
-0.00164397
-0.00147671
-0.00124709
-0.00096605
-0.000648136
-0.00147138
-0.00151057
-0.00158593
-0.00166835
-0.00173248
-0.00175529
-0.00172204
-0.00162263
-0.00145775
-0.00123202
-0.000955872
-0.000643246
-0.00147438
-0.00151176
-0.00158395
-0.00166308
-0.00172439
-0.00174498
-0.00170914
-0.00161218
-0.00144884
-0.00122525
-0.000951679
-0.000641753
-0.000343157
0.000181397
0.000669668
0.00112118
0.00152301
0.00185939
0.00211024
0.00225748
0.00225561
0.00208855
0.00175939
0.00127952
-0.000342386
0.000151462
0.000613951
0.00104233
0.00141851
0.00173073
0.00196204
0.00209007
0.00211001
0.00199217
0.00177616
0.00149373
-0.000340104
0.000125024
0.000560527
0.000969392
0.00132232
0.00161484
0.00183278
0.00195892
0.00198927
0.00191169
0.00176712
0.00155745
-0.000334547
0.000101134
0.00051044
0.00090716
0.00123782
0.00151446
0.00172379
0.00185043
0.00189175
0.00184695
0.00175039
0.00161754
-0.000328398
8.29862e-05
0.000475137
0.000845606
0.00116508
0.00142934
0.00163417
0.00176217
0.00181432
0.00179578
0.00173589
0.00164775
-0.000322455
6.86961e-05
0.000444523
0.000796196
0.00110367
0.00135761
0.00156237
0.00169173
0.0017533
0.00175535
0.0017229
0.00166166
-0.000317291
5.72831e-05
0.000418968
0.000756501
0.00105454
0.00130311
0.00150029
0.00163668
0.00170563
0.00172337
0.00170979
0.00166915
-0.000313267
4.80984e-05
0.000398231
0.000725033
0.00101599
0.00126002
0.00145271
0.00159361
0.00166887
0.00169857
0.00169794
0.00167318
-0.000310588
4.06731e-05
0.000381846
0.000700609
0.000986837
0.00122754
0.0014197
0.00155882
0.00164137
0.00168008
0.00168863
0.00167517
-0.000309364
3.46601e-05
0.000369332
0.000682161
0.000966242
0.00120496
0.00139529
0.00153474
0.00162223
0.00166733
0.00168225
0.00167635
-0.000309625
2.98272e-05
0.000360342
0.000668731
0.000954049
0.00118973
0.0013798
0.00151982
0.00161064
0.00165988
0.00167887
0.0016776
-0.000310699
2.6668e-05
0.000355377
0.00066329
0.00094581
0.00118167
0.00137112
0.0015129
0.00160548
0.0016568
0.00167784
0.00167907
-0.000460855
-0.00111164
-0.00170649
-0.00219922
-0.00258783
-0.00283794
-0.00292557
-0.00283559
-0.00256657
-0.00214722
-0.0016244
-0.00105588
-0.000826059
-0.00125493
-0.00171345
-0.00210634
-0.00242393
-0.00262723
-0.00269172
-0.00260306
-0.00236079
-0.00198764
-0.00152143
-0.00100668
-0.00106445
-0.00135681
-0.00171361
-0.00203101
-0.00228948
-0.0024526
-0.00249668
-0.00240801
-0.00218669
-0.00185034
-0.00142938
-0.000960313
-0.00121729
-0.00142594
-0.00170849
-0.00196775
-0.00217895
-0.00230893
-0.0023356
-0.00224632
-0.00204111
-0.00173387
-0.00134934
-0.000917801
-0.00132806
-0.0014765
-0.00170069
-0.00191458
-0.00208843
-0.00219173
-0.00220406
-0.00211384
-0.00192105
-0.00163668
-0.00128128
-0.000880363
-0.00140698
-0.00151507
-0.00169351
-0.00187097
-0.00201513
-0.00209719
-0.00209797
-0.00200675
-0.00182355
-0.00155707
-0.00122477
-0.000848554
-0.00146272
-0.00154437
-0.00168806
-0.00183636
-0.00195688
-0.0020221
-0.00201379
-0.0019222
-0.00174584
-0.00149323
-0.00117904
-0.000822474
-0.00150196
-0.00156614
-0.00168422
-0.00180973
-0.00191169
-0.00196375
-0.00194838
-0.00185599
-0.00168534
-0.00144341
-0.00114321
-0.00080197
-0.00152883
-0.0015816
-0.00168142
-0.00178986
-0.00187778
-0.0019199
-0.0018993
-0.00180635
-0.00163998
-0.00140609
-0.00111642
-0.000786777
-0.00154609
-0.00159158
-0.0016791
-0.0017756
-0.00185359
-0.0018887
-0.00186459
-0.00177128
-0.00160808
-0.00137999
-0.0010979
-0.000776593
-0.00155552
-0.00159667
-0.00167678
-0.00176599
-0.00183782
-0.00186858
-0.00184265
-0.00174911
-0.0015882
-0.00136402
-0.00108693
-0.000771085
-0.00155876
-0.00159802
-0.00167483
-0.00176072
-0.00182964
-0.00185806
-0.00182923
-0.00173826
-0.00157886
-0.00135683
-0.00108237
-0.000769328
)
;

boundaryField
{
    rotor
    {
        type            zeroGradient;
    }
    stator
    {
        type            zeroGradient;
    }
    AMI1
    {
        type            cyclicAMI;
        value           nonuniform 0();
    }
    AMI2
    {
        type            cyclicAMI;
        value           nonuniform List<scalar> 
48
(
-0.000569144
-0.000102572
0.000308326
0.000867046
0.00144945
0.00199241
0.00243477
0.00276606
0.00273045
0.00239141
0.00178123
0.000995212
1.48803e-06
-0.00115684
-0.00226971
-0.00322962
-0.00396039
-0.00440701
-0.00453719
-0.00434129
-0.00383342
-0.00305217
-0.00209756
-0.00114063
-0.000408464
7.40636e-05
0.000528094
0.00104133
0.00156642
0.00206285
0.00247049
0.00278358
0.00273674
0.00239625
0.00181151
0.0010157
-2.23404e-05
-0.00117625
-0.00228865
-0.00325806
-0.00401221
-0.00449734
-0.00467847
-0.00453313
-0.0040471
-0.00324098
-0.00225742
-0.00130006
)
;
    }
    front
    {
        type            empty;
    }
    back
    {
        type            empty;
    }
    procBoundary1to0
    {
        type            processor;
        value           nonuniform List<scalar> 8(1.42349e-07 3.00095e-05 -2.36507e-05 -0.000202395 0.00109392 0.00112045 0.00110577 0.00111995);
    }
}


// ************************************************************************* //
