/*--------------------------------*- C++ -*----------------------------------*\
| =========                 |                                                 |
| \\      /  F ield         | OpenFOAM: The Open Source CFD Toolbox           |
|  \\    /   O peration     | Version:  v1806                                 |
|   \\  /    A nd           | Web:      www.OpenFOAM.com                      |
|    \\/     M anipulation  |                                                 |
\*---------------------------------------------------------------------------*/
FoamFile
{
    version     2.0;
    format      ascii;
    class       surfaceScalarField;
    location    "5";
    object      phi;
}
// * * * * * * * * * * * * * * * * * * * * * * * * * * * * * * * * * * * * * //

dimensions      [0 3 -1 0 0 0 0];
oriented        oriented;


internalField   nonuniform List<scalar> 
1460
(
-1.65104e-06
-5.8078e-07
1.61422e-06
-1.68182e-06
-6.11458e-07
-1.72144e-06
-5.83076e-07
-1.77207e-06
-5.03074e-07
-1.82101e-06
-4.03166e-07
-1.86613e-06
-2.81404e-07
-1.90644e-06
-1.35656e-07
-1.92992e-06
2.64288e-08
-1.93416e-06
2.06561e-07
-1.90226e-06
3.67165e-07
-1.81583e-06
4.7818e-07
5.45109e-07
-1.1422e-06
-5.45966e-07
1.10739e-06
-1.18241e-06
-5.71246e-07
-1.23441e-06
-5.31081e-07
-1.28488e-06
-4.52598e-07
-1.33188e-06
-3.56172e-07
-1.37067e-06
-2.4261e-07
-1.39666e-06
-1.09669e-07
-1.41652e-06
4.62884e-08
-1.43035e-06
2.20396e-07
-1.4233e-06
3.60113e-07
-1.3706e-06
4.2548e-07
4.31064e-07
-7.4732e-07
-4.94358e-07
6.95713e-07
-8.04467e-07
-5.14099e-07
-8.58746e-07
-4.76803e-07
-9.04749e-07
-4.06595e-07
-9.43869e-07
-3.17052e-07
-9.75295e-07
-2.11184e-07
-9.93023e-07
-9.19413e-08
-9.95317e-07
4.85826e-08
-9.96059e-07
2.21138e-07
-9.99925e-07
3.63979e-07
-9.74132e-07
3.99688e-07
3.26525e-07
-4.57847e-07
4.02367e-07
-4.38879e-07
-5.17746e-07
-4.54199e-07
-5.71509e-07
-4.2304e-07
-6.14221e-07
-3.63882e-07
-6.45417e-07
-2.85857e-07
-6.65754e-07
-1.90846e-07
-6.74062e-07
-8.36335e-08
-6.64157e-07
3.86772e-08
-6.37663e-07
1.94645e-07
-6.16351e-07
3.42667e-07
-5.78347e-07
3.61684e-07
2.13817e-07
-1.56751e-06
6.13261e-07
-1.46845e-06
6.57312e-07
-1.39567e-06
6.28195e-07
-1.34951e-06
5.36767e-07
-1.33157e-06
4.00477e-07
-1.34111e-06
2.37507e-07
-1.37517e-06
6.5391e-08
-1.42745e-06
-1.02871e-07
-1.48955e-06
-2.56951e-07
-1.55117e-06
-3.88587e-07
-1.60288e-06
-4.88474e-07
-5.49684e-07
-1.63739e-06
-1.12513e-06
4.73383e-07
-1.02404e-06
5.56223e-07
-9.41153e-07
5.45304e-07
-8.792e-07
4.74814e-07
-8.44559e-07
3.65836e-07
-8.37872e-07
2.3082e-07
-8.5586e-07
8.33789e-08
-8.92234e-07
-6.64982e-08
-9.40244e-07
-2.0894e-07
-9.94106e-07
-3.34725e-07
-1.04798e-06
-4.34602e-07
-5.00362e-07
-1.0973e-06
-7.50348e-07
3.4521e-07
-6.78449e-07
4.84324e-07
-6.11229e-07
4.78084e-07
-5.49709e-07
4.13294e-07
-5.0627e-07
3.22397e-07
-4.84743e-07
2.09293e-07
-4.8535e-07
8.39862e-08
-5.05229e-07
-4.66191e-08
-5.40649e-07
-1.7352e-07
-5.88181e-07
-2.87194e-07
-6.42883e-07
-3.79899e-07
-4.43417e-07
-6.99828e-07
-4.26996e-07
2.88882e-07
-3.95173e-07
4.52501e-07
-3.48594e-07
4.31505e-07
-2.96765e-07
3.61465e-07
-2.55412e-07
2.81044e-07
-2.30423e-07
1.84304e-07
-2.23938e-07
7.75009e-08
-2.35378e-07
-3.51788e-08
-2.63513e-07
-1.45386e-07
-3.04992e-07
-2.45715e-07
-3.56437e-07
-3.28455e-07
-4.1289e-07
-3.86964e-07
-1.65882e-06
-5.75217e-07
-1.68159e-06
-5.72129e-07
-1.7141e-06
-5.39254e-07
-1.75624e-06
-4.75526e-07
-1.8044e-06
-3.84185e-07
-1.85263e-06
-2.68361e-07
-1.89816e-06
-1.27978e-07
-1.92594e-06
2.66188e-08
-1.93264e-06
1.97389e-07
-1.90412e-06
3.52401e-07
-1.83149e-06
4.71699e-07
5.50405e-07
-1.71639e-06
-1.14164e-06
-5.30876e-07
-1.18511e-06
-5.28656e-07
-1.22985e-06
-4.94516e-07
-1.27574e-06
-4.29641e-07
-1.32073e-06
-3.39189e-07
-1.3591e-06
-2.29991e-07
-1.38576e-06
-1.0132e-07
-1.40685e-06
4.77115e-08
-1.42436e-06
2.14891e-07
-1.4261e-06
3.54145e-07
-1.38251e-06
4.28108e-07
4.41476e-07
-1.27358e-06
-7.55404e-07
-4.753e-07
-8.08342e-07
-4.75717e-07
-8.57022e-07
-4.45836e-07
-8.99959e-07
-3.86705e-07
-9.37167e-07
-3.01981e-07
-9.67632e-07
-1.99526e-07
-9.85117e-07
-8.38356e-08
-9.86737e-07
4.93317e-08
-9.86989e-07
2.15143e-07
-9.91516e-07
3.58672e-07
-9.69194e-07
4.05786e-07
3.46947e-07
-8.74666e-07
-4.70075e-07
-4.18115e-07
-5.2448e-07
-4.21312e-07
-5.73324e-07
-3.96992e-07
-6.1323e-07
-3.46799e-07
-6.42475e-07
-2.72735e-07
-6.61545e-07
-1.80456e-07
-6.69322e-07
-7.60594e-08
-6.60593e-07
4.06034e-08
-6.35722e-07
1.90272e-07
-6.1398e-07
3.3693e-07
-5.76755e-07
3.68561e-07
-4.70413e-07
2.40605e-07
-1.5963e-06
6.23745e-07
-1.503e-06
6.71129e-07
-1.43322e-06
6.46634e-07
-1.38783e-06
5.60695e-07
-1.3692e-06
4.30391e-07
-1.37741e-06
2.72559e-07
-1.40953e-06
1.02173e-07
-1.45838e-06
-7.18983e-08
-1.51327e-06
-2.42685e-07
-1.56193e-06
-3.98645e-07
-1.58882e-06
-5.22423e-07
-5.69629e-07
-1.14529e-06
4.95458e-07
-1.04868e-06
5.74518e-07
-9.66874e-07
5.64827e-07
-9.03706e-07
4.97527e-07
-8.66424e-07
3.93109e-07
-8.55986e-07
2.6212e-07
-8.68671e-07
1.14858e-07
-8.96586e-07
-4.39834e-08
-9.35986e-07
-2.03285e-07
-9.84876e-07
-3.49756e-07
-1.04748e-06
-4.59822e-07
-5.09718e-07
-7.62811e-07
3.83603e-07
-6.95759e-07
5.07466e-07
-6.28196e-07
4.97263e-07
-5.63609e-07
4.3294e-07
-5.15448e-07
3.44949e-07
-4.87919e-07
2.34591e-07
-4.81373e-07
1.08312e-07
-4.94669e-07
-3.06868e-08
-5.26353e-07
-1.71601e-07
-5.75709e-07
-3.004e-07
-6.38226e-07
-3.97305e-07
-4.52232e-07
-4.31798e-07
3.44988e-07
-4.06462e-07
4.8213e-07
-3.59739e-07
4.5054e-07
-3.03855e-07
3.77056e-07
-2.56625e-07
2.97718e-07
-2.24759e-07
2.02726e-07
-2.11442e-07
9.49944e-08
-2.1842e-07
-2.37087e-08
-2.45735e-07
-1.44286e-07
-2.91185e-07
-2.5495e-07
-3.47551e-07
-3.40938e-07
-3.97416e-07
-2.45017e-07
-3.84379e-07
1.90517e-07
-3.02466e-07
-3.9675e-07
-3.53968e-07
-3.71538e-07
-3.94913e-07
-3.22938e-07
-4.23234e-07
-2.57535e-07
-4.37352e-07
-1.76729e-07
-4.36728e-07
-8.4257e-08
-4.1551e-07
1.74593e-08
-3.56695e-07
1.3583e-07
-2.62314e-07
2.48286e-07
-1.58803e-07
2.58174e-07
5.50133e-08
-9.07095e-08
-3.33045e-07
3.93754e-08
-1.44976e-07
-3.42484e-07
-1.93393e-07
-3.23121e-07
-2.32682e-07
-2.83649e-07
-2.60821e-07
-2.29397e-07
-2.74521e-07
-1.63029e-07
-2.72115e-07
-8.66621e-08
-2.50621e-07
-4.03521e-09
-1.97069e-07
8.22782e-08
-1.05515e-07
1.56731e-07
-1.74345e-08
1.70093e-07
3.75789e-08
1.34686e-08
-2.8531e-07
-6.12039e-08
-3.46257e-08
-2.9439e-07
-7.93675e-08
-2.78379e-07
-1.16988e-07
-2.46029e-07
-1.44677e-07
-2.01707e-07
-1.60358e-07
-1.47349e-07
-1.61431e-07
-8.55893e-08
-1.45632e-07
-1.98341e-08
-1.07851e-07
4.44979e-08
-4.61796e-08
9.50596e-08
1.09489e-08
1.12965e-07
4.85277e-08
8.14493e-08
-2.41807e-07
-1.24952e-07
3.6846e-08
-2.49786e-07
-3.47058e-09
-2.38063e-07
-3.79269e-08
-2.11573e-07
-6.49844e-08
-1.7465e-07
-8.21836e-08
-1.3015e-07
-8.76235e-08
-8.01494e-08
-7.97489e-08
-2.77087e-08
-5.70378e-08
2.17868e-08
-2.19454e-08
5.99673e-08
9.9486e-09
8.10707e-08
5.84763e-08
1.22213e-07
-2.02704e-07
-1.61316e-07
8.19596e-08
-2.09532e-07
4.44464e-08
-2.00549e-07
1.20194e-08
-1.79146e-07
-1.32635e-08
-1.49367e-07
-3.15972e-08
-1.11816e-07
-4.09002e-08
-7.08464e-08
-3.96017e-08
-2.90072e-08
-2.82574e-08
1.04425e-08
-1.01116e-08
4.18215e-08
6.04333e-09
6.49157e-08
6.45195e-08
1.43154e-07
-1.67513e-07
-1.78346e-07
1.06684e-07
-1.73062e-07
7.20823e-08
-1.65948e-07
4.14652e-08
-1.48529e-07
1.60944e-08
-1.23996e-07
-2.10723e-09
-9.36143e-08
-1.31156e-08
-5.9838e-08
-1.69379e-08
-2.51849e-08
-1.35352e-08
7.03978e-09
-5.47094e-09
3.37573e-08
1.61286e-09
5.78319e-08
6.61323e-08
1.49852e-07
-1.35435e-07
-1.8193e-07
1.16358e-07
-1.39569e-07
8.4127e-08
-1.33717e-07
5.51112e-08
-1.19513e-07
3.05161e-08
-9.94008e-08
1.15631e-08
-7.46613e-08
-1.0102e-09
-4.72647e-08
-7.25962e-09
-1.89355e-08
-8.37834e-09
8.15848e-09
-5.66469e-09
3.10436e-08
-1.70543e-09
5.38726e-08
6.44268e-08
1.45697e-07
-1.05631e-07
-1.75501e-07
1.14389e-07
-1.08261e-07
8.39368e-08
-1.03264e-07
5.61942e-08
-9.17705e-08
3.23389e-08
-7.55456e-08
1.339e-08
-5.57125e-08
1.40371e-11
-3.38888e-08
-7.51273e-09
-1.14088e-08
-1.04964e-08
1.11421e-08
-9.61508e-09
3.01623e-08
-5.37135e-09
4.96288e-08
5.90554e-08
1.32259e-07
-7.73852e-08
-1.60505e-07
1.02535e-07
-7.85379e-08
7.34714e-08
-7.42004e-08
4.68216e-08
-6.51208e-08
2.38169e-08
-5.25408e-08
5.41953e-09
-3.73151e-08
-7.23497e-09
-2.12343e-08
-1.52591e-08
-3.38468e-09
-1.79866e-08
1.38696e-08
-1.61966e-08
2.83723e-08
-9.54651e-09
4.29786e-08
4.95087e-08
1.10333e-07
-5.02139e-08
-1.37505e-07
8.17676e-08
-4.99723e-08
5.38725e-08
-4.63053e-08
2.83621e-08
-3.96104e-08
6.58678e-09
-3.07656e-08
-9.95405e-09
-2.07743e-08
-2.2244e-08
-8.94438e-09
-2.8525e-08
2.89631e-09
-2.89283e-08
1.42728e-08
-2.42751e-08
2.37191e-08
-1.38265e-08
3.253e-08
3.56822e-08
7.69321e-08
-2.33317e-08
-1.03814e-07
4.90201e-08
-2.20602e-08
2.23605e-08
-1.96457e-08
-1.30413e-09
-1.59458e-08
-2.0808e-08
-1.12617e-08
-3.56388e-08
-5.94345e-09
-4.43444e-08
-2.38834e-10
-4.66763e-08
5.22818e-09
-4.27216e-08
1.03181e-08
-3.31394e-08
1.41368e-08
-1.79454e-08
1.73359e-08
1.77367e-08
1.03401e-08
-3.36718e-08
-1.17201e-08
-3.13658e-08
-4.73116e-08
-5.85734e-08
-6.45168e-08
-6.47557e-08
-5.95275e-08
-4.92093e-08
-3.50726e-08
-1.77367e-08
-1.25847e-07
4.14728e-07
-1.72154e-07
4.98808e-07
-1.49535e-07
4.08886e-07
-1.06394e-07
3.18324e-07
-6.92812e-08
2.43932e-07
-4.61949e-08
1.61218e-07
-3.92403e-08
7.05463e-08
-4.79734e-08
-2.64458e-08
-7.16429e-08
-1.21716e-07
-1.07857e-07
-2.09501e-07
-1.53822e-07
-2.82489e-07
-3.35105e-07
-2.05681e-07
-1.89272e-08
4.33655e-07
-3.35023e-08
5.13384e-07
-1.17567e-08
3.87141e-07
2.36198e-08
2.82947e-07
5.95364e-08
2.08015e-07
8.28498e-08
1.37905e-07
9.11534e-08
6.22427e-08
8.41629e-08
-1.94554e-08
6.38767e-08
-1.0143e-07
3.18739e-08
-1.77498e-07
-9.15699e-09
-2.41459e-07
-2.88204e-07
-5.60582e-08
3.20686e-08
4.01587e-07
5.16005e-08
4.93852e-07
7.93702e-08
3.59371e-07
1.1169e-07
2.50628e-07
1.43706e-07
1.75999e-07
1.66134e-07
1.15477e-07
1.75181e-07
5.31951e-08
1.70264e-07
-1.45384e-08
1.52746e-07
-8.39116e-08
1.24441e-07
-1.49193e-07
8.75411e-08
-2.04559e-07
-2.45613e-07
4.49498e-08
5.67754e-08
3.44811e-07
1.03874e-07
4.46752e-07
1.35159e-07
3.28086e-07
1.64006e-07
2.21781e-07
1.91555e-07
1.4845e-07
2.12146e-07
9.48854e-08
2.21786e-07
4.35549e-08
2.19071e-07
-1.18229e-08
2.04737e-07
-6.95774e-08
1.80295e-07
-1.24752e-07
1.47835e-07
-1.72098e-07
-2.07568e-07
1.0979e-07
6.17081e-08
2.83103e-07
1.24916e-07
3.83544e-07
1.62966e-07
2.90036e-07
1.91017e-07
1.9373e-07
2.1471e-07
1.24757e-07
2.32712e-07
7.68834e-08
2.42028e-07
3.42389e-08
2.41049e-07
-1.08443e-08
2.29692e-07
-5.82205e-08
2.08985e-07
-1.04045e-07
1.80697e-07
-1.4381e-07
-1.7389e-07
1.47019e-07
5.77472e-08
2.25356e-07
1.26292e-07
3.14999e-07
1.70606e-07
2.45722e-07
2.00039e-07
1.64297e-07
2.21672e-07
1.03125e-07
2.37342e-07
6.12135e-08
2.45856e-07
2.57243e-08
2.45798e-07
-1.07859e-08
2.36721e-07
-4.91438e-08
2.1917e-07
-8.64935e-08
1.94506e-07
-1.19147e-07
-1.43976e-07
1.64592e-07
5.10081e-08
1.74348e-07
1.1832e-07
2.47687e-07
1.66209e-07
1.97833e-07
1.97529e-07
1.32976e-07
2.1851e-07
8.21442e-08
2.32503e-07
4.72201e-08
2.40057e-07
1.8171e-08
2.40277e-07
-1.10065e-08
2.32671e-07
-4.15379e-08
2.17397e-07
-7.12198e-08
1.9549e-07
-9.72397e-08
-1.17011e-07
1.68525e-07
4.4649e-08
1.29699e-07
1.07819e-07
1.84517e-07
1.56361e-07
1.49291e-07
1.88492e-07
1.00846e-07
2.08875e-07
6.17606e-08
2.21748e-07
3.43477e-08
2.28319e-07
1.15994e-08
2.28366e-07
-1.10529e-08
2.21426e-07
-3.45981e-08
2.07544e-07
-5.73379e-08
1.87464e-07
-7.71603e-08
-9.20788e-08
1.62533e-07
3.95087e-08
9.019e-08
9.74588e-08
1.26567e-07
1.44101e-07
1.02648e-07
1.75264e-07
6.9683e-08
1.94539e-07
4.2485e-08
2.06135e-07
2.27521e-08
2.11655e-07
6.07889e-09
2.11198e-07
-1.0596e-08
2.04322e-07
-2.77221e-08
1.91039e-07
-4.40547e-08
1.71984e-07
-5.81054e-08
-6.84285e-08
1.48334e-07
3.50174e-08
5.51725e-08
8.686e-08
7.47242e-08
1.29276e-07
6.02325e-08
1.5766e-07
4.12991e-08
1.75174e-07
2.49703e-08
1.85394e-07
1.25324e-08
1.89818e-07
1.65462e-09
1.88648e-07
-9.42597e-09
1.815e-07
-2.0574e-08
1.68331e-07
-3.08854e-08
1.49717e-07
-3.94921e-08
-4.54666e-08
1.26755e-07
3.07864e-08
2.4386e-08
7.48213e-08
3.06893e-08
1.10808e-07
2.42456e-08
1.35362e-07
1.67449e-08
1.50674e-07
9.65895e-09
1.59418e-07
3.78747e-09
1.62694e-07
-1.62056e-09
1.60386e-07
-7.11894e-09
1.52131e-07
-1.23181e-08
1.38035e-07
-1.67898e-08
1.18741e-07
-2.0198e-08
-2.21655e-08
9.54398e-08
2.4386e-08
5.50753e-08
7.93209e-08
9.60658e-08
1.05725e-07
1.09512e-07
1.07892e-07
1.00773e-07
8.84546e-08
7.16647e-08
5.14667e-08
2.93012e-08
-2.59593e-07
-3.64203e-07
-3.11662e-07
-3.69243e-07
-3.58819e-07
-3.49835e-07
-3.96993e-07
-3.08624e-07
-4.23392e-07
-2.46337e-07
-4.36228e-07
-1.67621e-07
-4.34977e-07
-7.73103e-08
-4.15021e-07
2.06481e-08
-3.60134e-07
1.35385e-07
-2.70692e-07
2.47488e-07
-1.67429e-07
2.65298e-07
7.31768e-08
-1.05516e-07
-3.14745e-07
-1.54951e-07
-3.19808e-07
-1.99731e-07
-3.05055e-07
-2.36783e-07
-2.71573e-07
-2.63004e-07
-2.20115e-07
-2.75591e-07
-1.55033e-07
-2.72523e-07
-8.03792e-08
-2.51717e-07
-1.5702e-10
-2.00538e-07
8.42057e-08
-1.11963e-07
1.58913e-07
-2.21395e-08
1.75474e-07
5.10372e-08
-6.09996e-11
-2.69734e-07
-4.43946e-08
-2.75474e-07
-8.61086e-08
-2.63341e-07
-1.2191e-07
-2.35771e-07
-1.4822e-07
-1.93805e-07
-1.62706e-07
-1.40548e-07
-1.63163e-07
-7.99219e-08
-1.47641e-07
-1.56794e-08
-1.10915e-07
4.74795e-08
-5.06886e-08
9.86868e-08
5.98025e-09
1.18805e-07
5.70175e-08
6.88509e-08
-2.28795e-07
2.8013e-08
-2.34636e-07
-9.20369e-09
-2.26125e-07
-4.30956e-08
-2.0188e-07
-6.93711e-08
-1.67529e-07
-8.55345e-08
-1.24385e-07
-9.03134e-08
-7.5143e-08
-8.22468e-08
-2.3746e-08
-5.98245e-08
2.50572e-08
-2.49498e-08
6.3812e-08
7.50361e-09
8.63516e-08
6.45211e-08
1.1032e-07
-1.92096e-07
7.30934e-08
-1.9741e-07
3.73758e-08
-1.90407e-07
6.59467e-09
-1.71098e-07
-1.80394e-08
-1.42895e-07
-3.57564e-08
-1.06668e-07
-4.40465e-08
-6.68529e-08
-4.22938e-08
-2.54987e-08
-3.0932e-08
1.36954e-08
-1.25829e-08
4.54629e-08
4.22911e-09
6.95396e-08
6.87502e-08
1.31558e-07
-1.59062e-07
9.76429e-08
-1.63495e-07
6.48476e-08
-1.57612e-07
3.56382e-08
-1.41889e-07
1.14116e-08
-1.18669e-07
-5.70487e-09
-8.95514e-08
-1.67502e-08
-5.58076e-08
-2.01297e-08
-2.21192e-08
-1.61591e-08
9.72477e-09
-7.65754e-09
3.69613e-08
4.12181e-10
6.14699e-08
6.91623e-08
1.38391e-07
-1.28928e-07
1.07105e-07
-1.3221e-07
7.66288e-08
-1.27135e-07
4.89459e-08
-1.14206e-07
2.53966e-08
-9.51194e-08
7.10896e-09
-7.12637e-08
-4.65633e-09
-4.40423e-08
-1.04591e-08
-1.63165e-08
-1.09983e-08
1.0264e-08
-7.64005e-09
3.3603e-08
-2.56185e-09
5.63917e-08
6.66004e-08
1.34461e-07
-1.00856e-07
1.05107e-07
-1.02856e-07
7.63265e-08
-9.83551e-08
4.98499e-08
-8.77297e-08
2.70166e-08
-7.22861e-08
8.84571e-09
-5.30929e-08
-3.40687e-09
-3.17897e-08
-1.07132e-08
-9.0102e-09
-1.30915e-08
1.26423e-08
-1.14133e-08
3.19247e-08
-6.19003e-09
5.11684e-08
6.04104e-08
1.21638e-07
-7.41604e-08
9.36086e-08
-7.48262e-08
6.61e-08
-7.08466e-08
4.06387e-08
-6.22684e-08
1.8623e-08
-5.02704e-08
1.0973e-09
-3.55672e-08
-1.10822e-08
-1.96102e-08
-1.81901e-08
-1.90236e-09
-2.02685e-08
1.47207e-08
-1.77354e-08
2.93916e-08
-1.02534e-08
4.36864e-08
5.0157e-08
1.00914e-07
-4.83186e-08
7.38196e-08
-4.77322e-08
4.73184e-08
-4.43455e-08
2.28474e-08
-3.77974e-08
2.07985e-09
-2.95029e-08
-1.38427e-08
-1.96446e-08
-2.52947e-08
-8.15827e-09
-3.07809e-08
3.58385e-09
-3.06975e-08
1.46373e-08
-2.52956e-08
2.39897e-08
-1.43232e-08
3.27139e-08
3.58338e-08
6.9643e-08
-2.25219e-08
4.29025e-08
-2.09917e-08
1.74457e-08
-1.88886e-08
-4.92813e-09
-1.54236e-08
-2.37441e-08
-1.06869e-08
-3.78937e-08
-5.49503e-09
-4.60549e-08
2.9697e-12
-4.78561e-08
5.38499e-09
-4.35093e-08
1.02905e-08
-3.36962e-08
1.41766e-08
-1.81643e-08
1.71819e-08
1.76696e-08
6.77931e-09
-1.42123e-08
-3.3101e-08
-4.85246e-08
-5.92115e-08
-6.47066e-08
-6.47036e-08
-5.93186e-08
-4.90281e-08
-3.48515e-08
-1.76696e-08
-1.26609e-07
4.71597e-07
-1.7805e-07
5.33571e-07
-1.55765e-07
4.28255e-07
-1.08925e-07
3.30216e-07
-6.60104e-08
2.54804e-07
-3.6596e-08
1.73312e-07
-2.40689e-08
8.24673e-08
-2.97818e-08
-1.79959e-08
-5.29061e-08
-1.21161e-07
-9.15876e-08
-2.16269e-07
-1.39723e-07
-2.92802e-07
-3.46622e-07
-1.31591e-08
4.84756e-07
-3.27702e-08
5.53182e-07
-1.25263e-08
4.08011e-07
2.51749e-08
2.92514e-07
6.58584e-08
2.14121e-07
9.43497e-08
1.4482e-07
1.07514e-07
6.93032e-08
1.03826e-07
-1.43081e-08
8.38049e-08
-1.0114e-07
4.99844e-08
-1.82448e-07
7.28996e-09
-2.50108e-07
-2.99957e-07
4.17233e-08
4.43033e-07
5.87268e-08
5.36178e-07
8.43341e-08
3.82404e-07
1.17445e-07
2.59404e-07
1.52416e-07
1.79149e-07
1.78827e-07
1.18409e-07
1.91509e-07
5.66209e-08
1.89071e-07
-1.18692e-08
1.72023e-07
-8.40932e-08
1.42775e-07
-1.532e-07
1.04731e-07
-2.12065e-07
-2.5643e-07
6.65663e-08
3.76466e-07
1.15717e-07
4.87028e-07
1.46036e-07
3.52085e-07
1.74179e-07
2.31261e-07
2.02866e-07
1.50463e-07
2.25805e-07
9.54702e-08
2.37804e-07
4.46211e-08
2.36833e-07
-1.08977e-08
2.23006e-07
-7.02665e-08
1.97984e-07
-1.28178e-07
1.64408e-07
-1.78488e-07
-2.16974e-07
7.06302e-08
3.05836e-07
1.391e-07
4.18559e-07
1.77648e-07
3.13536e-07
2.05048e-07
2.0386e-07
2.28692e-07
1.26819e-07
2.47614e-07
7.65482e-08
2.58182e-07
3.40525e-08
2.58195e-07
-1.09105e-08
2.47111e-07
-5.91818e-08
2.25908e-07
-1.06975e-07
1.96538e-07
-1.49119e-07
-1.81752e-07
6.49421e-08
2.40894e-07
1.402e-07
3.433e-07
1.86633e-07
2.67103e-07
2.16244e-07
1.74249e-07
2.37539e-07
1.05524e-07
2.53345e-07
6.07431e-08
2.62305e-07
2.50917e-08
2.62612e-07
-1.12175e-08
2.53564e-07
-5.01338e-08
2.35461e-07
-8.88709e-08
2.0976e-07
-1.23419e-07
-1.50337e-07
5.63011e-08
1.84593e-07
1.30366e-07
2.69236e-07
1.8171e-07
2.15759e-07
2.1419e-07
1.4177e-07
2.35106e-07
8.46076e-08
2.49025e-07
4.68238e-08
2.56551e-07
1.75657e-08
2.56829e-07
-1.14956e-08
2.4901e-07
-4.23144e-08
2.33197e-07
-7.30578e-08
2.10316e-07
-1.00538e-07
-1.21951e-07
4.83691e-08
1.36224e-07
1.17651e-07
1.99954e-07
1.7045e-07
1.62959e-07
2.04552e-07
1.07667e-07
2.25411e-07
6.37484e-08
2.38141e-07
3.40934e-08
2.44444e-07
1.12629e-08
2.44354e-07
-1.14056e-08
2.37131e-07
-3.50911e-08
2.22713e-07
-5.86397e-08
2.0173e-07
-7.95552e-08
-9.57218e-08
4.21192e-08
9.41045e-08
1.05477e-07
1.36597e-07
1.5657e-07
1.11867e-07
1.9011e-07
7.41275e-08
2.10105e-07
4.37529e-08
2.2153e-07
2.26687e-08
2.26758e-07
6.03473e-09
2.2605e-07
-1.06974e-08
2.1892e-07
-2.79614e-08
2.05177e-07
-4.48969e-08
1.85326e-07
-5.97042e-08
-7.09006e-08
3.69636e-08
5.7141e-08
9.34363e-08
8.0124e-08
1.39963e-07
6.53401e-08
1.70639e-07
4.34516e-08
1.88678e-07
2.57139e-08
1.98693e-07
1.26536e-08
2.02962e-07
1.76522e-09
2.01608e-07
-9.34314e-09
1.94292e-07
-2.06457e-08
1.80736e-07
-3.13405e-08
1.61462e-07
-4.04308e-08
-4.69427e-08
3.20909e-08
2.50501e-08
7.97248e-08
3.249e-08
1.19069e-07
2.59963e-08
1.45079e-07
1.74413e-08
1.60844e-07
9.94829e-09
1.69542e-07
3.95562e-09
1.72782e-07
-1.474e-09
1.7042e-07
-6.98117e-09
1.62112e-07
-1.23377e-08
1.4778e-07
-1.7009e-08
1.27968e-07
-2.0619e-08
-2.27889e-08
2.50501e-08
5.75401e-08
8.35365e-08
1.00978e-07
1.10926e-07
1.14882e-07
1.13408e-07
1.06427e-07
9.40888e-08
7.70798e-08
5.64607e-08
)
;

boundaryField
{
    rotor
    {
        type            calculated;
        value           nonuniform 0();
    }
    stator
    {
        type            calculated;
        value           nonuniform List<scalar> 
96
(
-4.70198e-38
0
-3.46066e-35
3.00927e-36
0
-1.20371e-35
-2.0881e-53
-6.01853e-36
3.61112e-35
0
-6.03029e-35
6.01853e-36
6.13608e-36
6.01853e-35
0
4.97704e-35
0
9.0278e-36
1.17549e-37
-1.50463e-36
5.52012e-35
-3.08156e-35
0
-9.03838e-35
2.35099e-38
-1.8085e-35
0
0
0
0
2.40741e-35
2.40741e-35
0
6.01853e-36
1.20371e-35
-4.46453e-35
6.01853e-36
3.02102e-35
0
4.13774e-35
-6.01853e-36
-3.98728e-35
6.82962e-36
1.20371e-35
3.00927e-36
-1.73033e-35
0
-4.70198e-38
-3.00927e-36
3.00927e-36
3.00927e-36
0
-3.00927e-36
0
0
-6.01853e-36
-9.0278e-36
0
0
0
0
-4.5139e-36
1.50463e-36
-4.5139e-36
0
-4.5139e-36
3.00927e-36
0
0
0
0
0
0
3.00927e-36
3.00927e-36
0
-3.00927e-36
4.5139e-36
0
-6.01853e-36
0
0
0
0
3.00927e-36
-3.00927e-36
-3.00927e-36
0
3.00927e-36
0
0
6.01853e-36
9.0278e-36
0
0
0
)
;
    }
    AMI1
    {
        type            cyclicAMI;
        value           nonuniform 0();
    }
    AMI2
    {
        type            cyclicAMI;
        value           nonuniform List<scalar> 
48
(
6.17593e-07
6.42241e-07
6.22699e-07
5.537e-07
4.52103e-07
3.26522e-07
1.75975e-07
-2.95728e-09
-2.02319e-07
-3.99065e-07
-5.64608e-07
-6.70287e-07
-7.42796e-07
-7.56366e-07
-7.0098e-07
-5.82922e-07
-4.18426e-07
-2.27968e-07
-3.13276e-08
1.55152e-07
3.19054e-07
4.50201e-07
5.40182e-07
5.84194e-07
5.9665e-07
5.94903e-07
5.71766e-07
5.17663e-07
4.3234e-07
3.1659e-07
1.73508e-07
1.16178e-09
-1.90681e-07
-3.80925e-07
-5.44329e-07
-6.65502e-07
-7.43838e-07
-7.64434e-07
-7.16413e-07
-6.06083e-07
-4.49019e-07
-2.64354e-07
-7.00501e-08
1.20752e-07
2.97575e-07
4.47304e-07
5.49308e-07
5.95036e-07
)
;
    }
    front
    {
        type            empty;
        value           nonuniform 0();
    }
    back
    {
        type            empty;
        value           nonuniform 0();
    }
    procBoundary1to0
    {
        type            processor;
        value           nonuniform List<scalar> 8(-1.69065e-06 -1.25656e-06 -8.69593e-07 -4.65638e-07 1.69704e-06 1.26501e-06 8.78521e-07 4.83325e-07);
    }
}


// ************************************************************************* //
