/*--------------------------------*- C++ -*----------------------------------*\
| =========                 |                                                 |
| \\      /  F ield         | OpenFOAM: The Open Source CFD Toolbox           |
|  \\    /   O peration     | Version:  v1806                                 |
|   \\  /    A nd           | Web:      www.OpenFOAM.com                      |
|    \\/     M anipulation  |                                                 |
\*---------------------------------------------------------------------------*/
FoamFile
{
    version     2.0;
    format      ascii;
    class       surfaceVectorField;
    location    "5";
    object      Uf;
}
// * * * * * * * * * * * * * * * * * * * * * * * * * * * * * * * * * * * * * //

dimensions      [0 1 -1 0 0 0 0];


internalField   nonuniform List<vector> 
1460
(
(-0.0111657 0.0669151 4.1219e-22)
(-0.0123838 0.055725 4.91746e-22)
(-0.0148574 0.064569 -5.19683e-22)
(-0.00660108 0.0687224 8.77501e-22)
(-0.00933227 0.0577774 7.67422e-23)
(-0.000565347 0.0703193 8.70609e-22)
(-0.0046133 0.0595771 -1.00622e-21)
(0.00658926 0.0716177 -1.08238e-20)
(0.00170628 0.0614866 0)
(0.0145091 0.0719974 -1.42259e-20)
(0.00862052 0.0623766 -1.73135e-21)
(0.0229215 0.0713008 1.74669e-20)
(0.0161363 0.062406 -1.67912e-20)
(0.0317909 0.0693488 2.09405e-20)
(0.0240507 0.0611179 1.2284e-20)
(0.0406673 0.0656597 1.5542e-20)
(0.0319274 0.0583612 3.0723e-22)
(0.0489018 0.0603725 9.52426e-21)
(0.0397588 0.0543732 8.09707e-21)
(0.0552702 0.0534994 1.28743e-21)
(0.0466842 0.0497353 -6.05789e-21)
(0.0584016 0.0453904 1.72273e-20)
(0.0511624 0.0439118 6.03685e-21)
(0.0516713 0.0356716 2.29153e-20)
(-0.0108082 0.0464945 2.66189e-22)
(-0.0116154 0.0374871 8.48482e-23)
(-0.0132139 0.0442955 6.49256e-22)
(-0.00754071 0.0486975 -1.50993e-21)
(-0.00959428 0.0396054 1.45136e-22)
(-0.00267258 0.0508753 -1.89528e-21)
(-0.00567051 0.0423034 1.4276e-22)
(0.00323699 0.0523411 9.22616e-21)
(-0.00061634 0.0442161 1.90016e-21)
(0.00970464 0.0529666 -2.69861e-21)
(0.00496993 0.0452301 -5.26841e-21)
(0.016622 0.0524591 -1.88075e-20)
(0.0109964 0.0454093 -3.34158e-21)
(0.023814 0.0505465 -6.03637e-21)
(0.0172902 0.0444077 -2.58429e-20)
(0.0309003 0.0475859 -5.92055e-21)
(0.0236037 0.0418509 7.42257e-21)
(0.037197 0.0439567 -7.59929e-21)
(0.0297963 0.0381041 -8.0352e-21)
(0.0418661 0.0396363 0)
(0.0353425 0.0347854 -1.11721e-21)
(0.044244 0.0341189 1.16879e-20)
(0.0388806 0.0316082 -2.41881e-20)
(0.0383368 0.0261066 -1.13695e-21)
(-0.0103326 0.0306342 -7.89102e-23)
(-0.0104339 0.0233403 0)
(-0.0115485 0.0278285 0)
(-0.0078292 0.0334871 1.57675e-21)
(-0.00912318 0.0261142 7.11315e-23)
(-0.00393189 0.0358049 3.56808e-21)
(-0.00616129 0.0289483 1.66589e-21)
(0.000750649 0.0372655 -1.14728e-20)
(-0.00224801 0.0308961 7.61977e-21)
(0.00589391 0.03787 -5.06562e-21)
(0.00217391 0.0318934 -1.36612e-20)
(0.0113252 0.037535 -9.99224e-21)
(0.00693798 0.0320068 1.32423e-20)
(0.0169375 0.0359356 -1.1881e-20)
(0.0118327 0.0311589 6.16956e-21)
(0.0225592 0.0329472 8.08197e-21)
(0.0167245 0.0289562 9.05386e-22)
(0.0276756 0.0294258 -4.52027e-22)
(0.0214911 0.0250799 -3.9208e-22)
(0.031259 0.0264293 -2.72682e-20)
(0.0255159 0.0214605 -1.13136e-21)
(0.0322453 0.0235483 -3.59231e-20)
(0.0278987 0.0197312 -2.70937e-20)
(0.0258142 0.0167476 -7.94172e-21)
(-0.00932517 0.0189644 1.51464e-22)
(-0.00986703 0.0160947 0)
(-0.00915626 0.0131346 3.25389e-22)
(-0.00758299 0.0218869 1.51464e-22)
(-0.00838995 0.0159769 -8.62633e-23)
(-0.00466998 0.0242371 5.73093e-21)
(-0.00626478 0.0187496 0)
(-0.00106079 0.0257198 5.73093e-21)
(-0.00332817 0.0207095 -1.84037e-22)
(0.00295386 0.0262608 4.50074e-21)
(8.21335e-05 0.0217686 -2.13935e-21)
(0.00716535 0.0258563 2.87186e-20)
(0.00378195 0.0218762 -8.85956e-21)
(0.0114558 0.0244134 1.87322e-20)
(0.00752352 0.0210287 2.99246e-20)
(0.0157385 0.0215895 -6.33513e-21)
(0.0111708 0.0191079 -6.37285e-21)
(0.0195443 0.0176174 0)
(0.0146076 0.0154442 0)
(0.0217547 0.0143828 -3.44016e-21)
(0.0168509 0.0106725 4.95787e-21)
(0.0204864 0.0128036 1.88277e-21)
(0.016542 0.0077101 9.48613e-21)
(0.0133314 0.00740546 3.75393e-21)
(-0.0587232 -0.0281338 2.99407e-21)
(-0.051419 -0.0276148 6.64076e-22)
(-0.0571951 -0.02195 9.39391e-22)
(-0.0503672 -0.0205443 4.41582e-21)
(-0.0550709 -0.0180662 4.0054e-20)
(-0.0482468 -0.0156769 -4.44619e-21)
(-0.0529257 -0.0162912 1.26476e-20)
(-0.0456951 -0.0129602 2.84395e-20)
(-0.0514005 -0.0161951 1.5947e-20)
(-0.0434199 -0.0121055 -2.50452e-20)
(-0.0509562 -0.0171599 6.94e-20)
(-0.0419992 -0.0126541 3.64481e-20)
(-0.0518015 -0.0185239 2.6658e-20)
(-0.0417713 -0.0140133 2.08603e-20)
(-0.0538402 -0.0196753 6.10687e-21)
(-0.0427736 -0.0156037 2.11079e-20)
(-0.0567459 -0.0201271 0)
(-0.0448105 -0.0168994 4.89656e-21)
(-0.0600113 -0.0195272 2.99176e-21)
(-0.0475371 -0.0174782 -7.01121e-21)
(-0.0630941 -0.017675 6.16506e-22)
(-0.0505341 -0.0169784 5.99046e-21)
(-0.0533634 -0.0151942 -3.61996e-21)
(-0.0654954 -0.0146151 -2.91452e-21)
(-0.042698 -0.0195697 2.82792e-21)
(-0.0365782 -0.0190107 1.80115e-21)
(-0.0410079 -0.0138445 0)
(-0.0361682 -0.0127656 -6.2111e-21)
(-0.0384679 -0.01019 -1.61395e-20)
(-0.0340275 -0.00861179 -3.54475e-21)
(-0.03575 -0.00841514 -8.18241e-21)
(-0.0312409 -0.00628162 -2.37374e-20)
(-0.0335832 -0.00828076 -5.43629e-21)
(-0.0285518 -0.00550886 -1.37534e-21)
(-0.0324117 -0.0093299 -1.25295e-20)
(-0.0265451 -0.00606976 -1.26099e-20)
(-0.0324126 -0.0110189 1.50607e-20)
(-0.0255726 -0.00753036 -4.73635e-21)
(-0.0335115 -0.0128263 1.98683e-20)
(-0.0257075 -0.00943202 4.92642e-21)
(-0.0355042 -0.0142897 -2.12885e-21)
(-0.0268627 -0.0113075 6.12608e-22)
(-0.0381324 -0.0150017 -4.05955e-21)
(-0.02887 -0.0127424 -3.34085e-22)
(-0.04105 -0.0146326 1.7249e-21)
(-0.0314796 -0.0133675 6.57805e-22)
(-0.0343749 -0.0128952 -5.41405e-22)
(-0.043892 -0.0130554 -1.19232e-21)
(-0.0294918 -0.0118919 -7.68212e-21)
(-0.0229616 -0.010798 -4.07386e-21)
(-0.0285083 -0.00742626 -8.64372e-21)
(-0.0249437 -0.00628623 1.72393e-21)
(-0.0262459 -0.00472756 -1.11104e-20)
(-0.0229564 -0.00313476 1.71355e-21)
(-0.0234499 -0.00336032 -1.85071e-20)
(-0.0203735 -0.00165082 -6.15258e-21)
(-0.0209633 -0.00327712 -1.00551e-20)
(-0.0176522 -0.00115917 1.17101e-20)
(-0.0192225 -0.00426069 -4.76693e-21)
(-0.0154 -0.00177572 8.38423e-21)
(-0.0184818 -0.00595153 -1.56575e-20)
(-0.0139698 -0.00322624 -2.9592e-20)
(-0.0187928 -0.00794656 -1.47589e-20)
(-0.013516 -0.00520296 -1.06414e-20)
(-0.0200916 -0.0098437 2.60257e-21)
(-0.0140728 -0.0073151 -1.8357e-20)
(-0.0222504 -0.0112401 4.51482e-21)
(-0.0155809 -0.00916232 7.02219e-21)
(-0.0249989 -0.0117732 -1.72465e-21)
(-0.0178627 -0.0104016 1.67271e-21)
(-0.0206522 -0.0107202 7.62862e-22)
(-0.0279931 -0.011243 7.58708e-22)
(-0.0180761 -0.00529236 6.99739e-21)
(-0.0118293 -0.00243862 -1.5911e-21)
(-0.0185465 -0.00179544 1.4984e-20)
(-0.0161002 -0.000433878 2.50781e-20)
(-0.0166428 -0.000190462 7.0758e-21)
(-0.0142551 0.00137402 -1.56106e-20)
(-0.0140074 0.000520361 2.42524e-20)
(-0.0119575 0.00185672 1.45433e-21)
(-0.0115501 0.000322178 3.03993e-20)
(-0.00934771 0.00196044 -5.16914e-21)
(-0.00966322 -0.000755907 -1.57176e-20)
(-0.007135 0.00118443 1.01356e-21)
(-0.00861738 -0.0024809 -2.49498e-20)
(-0.00560129 -0.000300397 -1.82899e-21)
(-0.00852734 -0.0045528 -1.40401e-20)
(-0.00492386 -0.00229618 1.05558e-20)
(-0.00942731 -0.0066346 -1.40401e-20)
(-0.00518469 -0.00446793 2.93444e-21)
(-0.0112049 -0.00835574 4.178e-21)
(-0.00636083 -0.00648696 0)
(-0.0136729 -0.0093857 4.20894e-21)
(-0.00832424 -0.00802501 1.36809e-22)
(-0.0165156 -0.00950916 5.20543e-23)
(-0.0108546 -0.00880762 6.0447e-23)
(-0.0671891 -0.0105874 -5.39261e-22)
(-0.0557515 -0.0122468 -6.5372e-22)
(-0.0685909 -0.00567229 1.97679e-21)
(-0.0577514 -0.00836854 2.00273e-23)
(-0.0698654 0.000211452 -9.71436e-22)
(-0.0594835 -0.00354279 -5.25039e-22)
(-0.0708391 0.00704897 -2.94822e-21)
(-0.0608741 0.00225508 -2.96789e-21)
(-0.0712292 0.0147051 -6.089e-21)
(-0.0617308 0.00890963 -1.24496e-20)
(-0.0706949 0.0229733 -6.84031e-21)
(-0.0617796 0.0162413 -1.71501e-20)
(-0.0690077 0.0317329 3.03444e-20)
(-0.0606239 0.024033 -2.86301e-21)
(-0.0655885 0.0404724 4.0212e-20)
(-0.0580678 0.0317759 3.97961e-20)
(-0.0605265 0.0485624 -1.36136e-20)
(-0.0543501 0.0394804 -1.61715e-20)
(-0.0538396 0.0549493 -2.81247e-20)
(-0.049941 0.0463875 6.51341e-21)
(-0.0458647 0.0588109 -1.74305e-20)
(-0.0440534 0.0510737 -6.05868e-21)
(-0.0363145 0.0524509 7.59461e-22)
(-0.0370014 0.0600925 -1.11604e-20)
(-0.0464427 -0.0103615 8.25015e-23)
(-0.03725 -0.0112682 -4.00094e-23)
(-0.0486881 -0.00664264 -1.94257e-21)
(-0.0399022 -0.0085589 1.85443e-24)
(-0.0505429 -0.00193591 -1.96274e-21)
(-0.0421658 -0.00482194 -1.97532e-21)
(-0.0518526 0.00364638 -1.25332e-20)
(-0.0438518 -0.000147063 -6.75697e-21)
(-0.0524238 0.00991675 -2.21806e-20)
(-0.0448114 0.00526017 6.22773e-22)
(-0.0519339 0.0166808 -9.93146e-21)
(-0.0449504 0.0111407 5.4341e-21)
(-0.0501028 0.023728 7.34123e-21)
(-0.0439769 0.0173105 -2.14081e-20)
(-0.0472603 0.030691 -1.41422e-20)
(-0.0415068 0.0234577 -2.01747e-20)
(-0.0437934 0.0370094 3.89963e-21)
(-0.0379029 0.0295188 -5.10141e-20)
(-0.0397261 0.0419329 2.70818e-20)
(-0.0346962 0.035106 5.76046e-20)
(-0.0345313 0.0444961 1.23298e-20)
(-0.0315104 0.0388802 -5.60555e-21)
(-0.0261436 0.0387068 -1.46327e-20)
(-0.0274214 0.0446231 1.23298e-20)
(-0.0309117 -0.00962269 -7.88763e-23)
(-0.023622 -0.00999297 2.24702e-23)
(-0.0335285 -0.00695609 -1.85556e-23)
(-0.0264677 -0.00821523 -4.08016e-23)
(-0.0356129 -0.00332001 -6.80059e-21)
(-0.0289157 -0.0054561 0)
(-0.0369674 0.00112284 5.49726e-21)
(-0.0307078 -0.00182954 2.29351e-21)
(-0.0375099 0.00612054 2.75959e-20)
(-0.0316486 0.00245622 1.29139e-20)
(-0.0371598 0.0114301 -4.81148e-21)
(-0.0317081 0.00710757 1.12306e-20)
(-0.0356047 0.0168934 -4.83836e-20)
(-0.0308581 0.0118979 -2.03544e-20)
(-0.0326906 0.0223171 -5.6016e-20)
(-0.0287359 0.016626 -1.9385e-20)
(-0.0292162 0.0273362 2.6831e-21)
(-0.0249804 0.0212695 -6.29949e-21)
(-0.0261474 0.0310738 2.32761e-20)
(-0.0213571 0.025294 2.92036e-20)
(-0.0231792 0.0323665 -3.01639e-20)
(-0.0194313 0.0278312 1.33013e-20)
(-0.016387 0.0261099 4.89397e-21)
(-0.0180829 0.0313956 -2.45222e-20)
(-0.0194104 -0.00865208 -7.89302e-23)
(-0.0136563 -0.00868565 1.69562e-23)
(-0.0220597 -0.00683207 -2.22688e-23)
(-0.0164148 -0.0076254 -3.05139e-22)
(-0.0242044 -0.00413332 8.60782e-21)
(-0.0188458 -0.00567255 2.82341e-22)
(-0.0255863 -0.00071586 9.38604e-21)
(-0.0206763 -0.00295297 8.65908e-21)
(-0.0260589 0.00318267 -2.41459e-21)
(-0.0216689 0.000351212 -9.52562e-21)
(-0.0256192 0.00729784 -3.17659e-21)
(-0.0217177 0.00396465 -1.17354e-20)
(-0.0241894 0.0114813 8.48426e-21)
(-0.0208502 0.00762419 2.76902e-20)
(-0.0214783 0.015646 3.0196e-20)
(-0.0189908 0.0111559 2.81448e-20)
(-0.0176308 0.0193844 1.96031e-20)
(-0.0154827 0.0145192 2.08993e-20)
(-0.0143278 0.0216706 1.79233e-20)
(-0.0108181 0.0168012 -3.98691e-21)
(-0.0124986 0.0207377 4.44618e-20)
(-0.00771152 0.0167373 2.52019e-22)
(-0.00878829 0.0178223 2.38779e-20)
(-0.00708055 0.0138284 9.93198e-21)
(-0.0287308 0.0597315 -4.2079e-21)
(-0.0279891 0.0521936 2.53257e-22)
(-0.0224987 0.0585155 -8.64035e-22)
(-0.0209795 0.0514301 -4.48922e-21)
(-0.0184572 0.056616 4.4878e-21)
(-0.0160302 0.0495137 4.51774e-21)
(-0.016444 0.0546072 0)
(-0.0131332 0.0470812 8.5788e-21)
(-0.0160761 0.0531378 -6.22425e-20)
(-0.0120395 0.044848 1.5024e-21)
(-0.0167984 0.0526777 -5.96222e-20)
(-0.0123473 0.0433987 -4.96678e-20)
(-0.0180384 0.0534178 -1.73177e-20)
(-0.0135444 0.0430786 -2.10033e-20)
(-0.0192912 0.0552241 -2.02988e-20)
(-0.015144 0.0438672 6.05667e-22)
(-0.0200903 0.0577206 9.31017e-21)
(-0.0166906 0.0454507 0)
(-0.0198481 0.0604034 1.25284e-20)
(-0.01773 0.0475527 3.49971e-21)
(-0.0180298 0.0625074 2.29324e-21)
(-0.0178003 0.05041 9.90891e-22)
(-0.0156649 0.0528349 -3.6997e-22)
(-0.0198158 0.0435548 0)
(-0.0189517 0.0372744 0)
(-0.0141057 0.0420497 0)
(-0.0129173 0.037031 -6.65914e-21)
(-0.0103328 0.0396098 8.63641e-21)
(-0.00873817 0.0349918 2.19329e-21)
(-0.00835897 0.0369143 1.10258e-20)
(-0.00625855 0.032215 1.04712e-20)
(-0.00799513 0.0346992 1.51874e-20)
(-0.00527328 0.0294713 -6.24036e-21)
(-0.00885261 0.0333936 -1.14834e-20)
(-0.00562071 0.027337 4.33904e-21)
(-0.0104815 0.0331362 -3.14293e-21)
(-0.00695709 0.0261505 -3.93667e-20)
(-0.0124652 0.0337885 2.11812e-20)
(-0.00895084 0.0259448 1.03535e-20)
(-0.0143929 0.03531 -5.912e-21)
(-0.011121 0.0266483 -4.63586e-21)
(-0.0156138 0.0376794 -8.32903e-21)
(-0.0129977 0.0282469 1.33855e-21)
(-0.0151971 0.0409929 -1.60189e-21)
(-0.013919 0.0310303 2.36816e-22)
(-0.0131199 0.0345152 5.68572e-22)
(-0.0117984 0.0302368 -6.70212e-21)
(-0.0102566 0.0236551 -1.47897e-21)
(-0.00748448 0.0293364 -3.47855e-21)
(-0.00617254 0.0256311 -8.01879e-21)
(-0.00471373 0.0270714 4.57595e-21)
(-0.00312548 0.0236889 2.22108e-21)
(-0.00317436 0.0241992 -5.17471e-21)
(-0.00153378 0.0210276 1.80198e-21)
(-0.00288656 0.0215652 -1.6452e-20)
(-0.000860004 0.0181755 2.56921e-22)
(-0.00371141 0.0195875 -2.27835e-20)
(-0.0012913 0.0157187 -8.11947e-21)
(-0.00538181 0.0185072 -2.65344e-20)
(-0.00265059 0.0140038 1.09225e-20)
(-0.00758096 0.0184535 -1.55429e-20)
(-0.00473442 0.013214 -1.12245e-20)
(-0.00983243 0.0195108 2.8737e-21)
(-0.007131 0.0134746 1.03068e-20)
(-0.0115177 0.0217107 1.0071e-20)
(-0.00934598 0.0148578 7.58605e-21)
(-0.0120573 0.0247936 2.53146e-21)
(-0.01075 0.0173796 4.66607e-21)
(-0.010914 0.0204752 0)
(-0.00475392 0.0188038 -2.35906e-22)
(-0.00154072 0.0126624 -1.49702e-21)
(-0.00167283 0.0192097 3.17326e-22)
(-6.69069e-05 0.0166727 1.48825e-20)
(-0.00010477 0.0172362 0)
(0.00149014 0.0148065 -3.75944e-21)
(0.000732222 0.0144572 8.16826e-21)
(0.00199992 0.0123717 0)
(0.000708199 0.0117946 1.01266e-20)
(0.00224237 0.00959246 8.21691e-21)
(-0.000238542 0.0096323 2.64477e-20)
(0.00162 0.00714813 -6.7035e-21)
(-0.00196694 0.00826398 2.61593e-20)
(0.000210101 0.0053291 1.36747e-20)
(-0.00422348 0.00791331 1.50946e-20)
(-0.00186576 0.00436758 3.95316e-21)
(-0.00658363 0.00871241 1.50946e-20)
(-0.00426952 0.00443952 5.33461e-22)
(-0.00852678 0.0106253 2.15782e-21)
(-0.00656743 0.0056105 0)
(-0.00962012 0.0133014 2.15782e-21)
(-0.00824363 0.00776358 -2.40417e-21)
(-0.00902184 0.0104241 -6.89995e-22)
(-0.00825314 0.0103627 1.78879e-22)
(-0.00791704 0.00578148 7.4989e-24)
(-0.00831811 0.0076207 -3.66791e-22)
(-0.00712815 0.0131415 -1.48459e-22)
(-0.00756517 0.00850867 -1.49312e-22)
(-0.00502029 0.0154347 -5.61393e-21)
(-0.00610369 0.0111062 -2.45674e-21)
(-0.00230486 0.0169714 -7.76609e-21)
(-0.00394948 0.0130379 -4.17708e-21)
(0.000770173 0.0176167 -1.53358e-20)
(-0.00136545 0.0141988 -3.63553e-21)
(0.00398236 0.0172859 -8.2467e-21)
(0.00146627 0.014471 -1.02461e-21)
(0.00714726 0.0159532 5.16782e-21)
(0.00429186 0.0137756 1.49631e-20)
(0.0100572 0.0133851 0)
(0.00689278 0.0121148 -5.15029e-21)
(0.01196 0.00916833 4.98757e-21)
(0.00903927 0.00911463 0)
(0.0116292 0.00430216 1.9614e-20)
(0.00973182 0.00459604 5.01624e-21)
(0.00816469 0.00128854 1.31289e-20)
(0.00730155 0.000318999 1.32044e-20)
(0.00324123 0.00176433 0)
(-0.0072147 0.00410904 -3.19933e-22)
(-0.00676777 0.00066633 -2.23492e-23)
(-0.00698151 0.00157501 3.58143e-22)
(-0.00654825 0.00671117 -2.47095e-21)
(-0.0066985 0.0031834 -1.11237e-22)
(-0.0050698 0.00889573 -9.93329e-22)
(-0.00575379 0.00556674 1.18192e-22)
(-0.00305753 0.0104549 1.87198e-22)
(-0.00420238 0.0074287 1.48583e-21)
(-0.000724367 0.0112634 1.05747e-20)
(-0.00225815 0.00865754 -1.48772e-21)
(0.00170873 0.0111778 2.14579e-20)
(-0.000110996 0.00913532 -2.35855e-20)
(0.00401667 0.0101554 5.07245e-21)
(0.00202491 0.00874761 3.14238e-20)
(0.00594459 0.00814358 -5.18008e-21)
(0.00391275 0.00749466 -5.20887e-21)
(0.00687392 0.00488754 0)
(0.00525724 0.00527964 -4.8077e-21)
(0.00565765 0.000978686 0)
(0.0054561 0.00213141 9.30884e-21)
(0.00181753 -0.000666362 0)
(0.00327392 -0.00147378 -4.51119e-21)
(0.000336277 -0.000761056 0)
(-0.0062353 -0.000131215 1.89177e-22)
(-0.00571823 -0.00273149 8.63483e-24)
(-0.00581104 -0.00244816 -2.96407e-22)
(-0.00590549 0.00217445 2.386e-21)
(-0.00587815 -0.0004592 -1.58914e-22)
(-0.00489393 0.00421036 2.55298e-21)
(-0.00528234 0.00170264 6.71593e-22)
(-0.00341519 0.00575968 0)
(-0.00417345 0.00346504 2.60058e-21)
(-0.00165883 0.00667452 -3.56144e-20)
(-0.00272486 0.00471871 -4.26853e-21)
(0.00019261 0.00686302 -1.42317e-20)
(-0.00108801 0.0053575 -3.85415e-20)
(0.00191959 0.00625307 2.16676e-20)
(0.000540242 0.0052816 -7.28733e-21)
(0.00327036 0.00483829 -4.83457e-21)
(0.00195912 0.00449491 -4.47232e-21)
(0.00383707 0.00262462 4.46836e-21)
(0.00289854 0.00299968 -3.87174e-22)
(0.00307113 -2.82364e-05 5.28942e-21)
(0.00303063 0.00101125 2.67808e-20)
(0.00115548 -0.00159585 -4.5364e-21)
(0.00171815 -0.00141759 -4.5608e-21)
(0.000270689 -0.00111077 0)
(-0.00532959 -0.00291564 -3.20908e-22)
(-0.00477992 -0.00484033 -2.92945e-22)
(-0.00478616 -0.00499809 2.86982e-22)
(-0.00523002 -0.000798011 -1.93484e-21)
(-0.00507179 -0.00281531 -2.96349e-23)
(-0.00455765 0.00104812 7.09281e-22)
(-0.00475156 -0.000863287 -9.78677e-23)
(-0.00348231 0.00250368 -1.75597e-21)
(-0.00396705 0.000784086 -1.05932e-21)
(-0.00215493 0.00347656 -7.17723e-21)
(-0.00287313 0.00202127 -1.04061e-20)
(-0.000738169 0.00386395 -3.2104e-20)
(-0.00161558 0.00276532 2.80207e-20)
(0.000588933 0.00361753 -3.3582e-20)
(-0.000352112 0.00293256 -2.11711e-20)
(0.00161435 0.0027514 -1.25404e-22)
(0.000758714 0.00254227 1.53255e-20)
(0.00207477 0.00135763 2.19611e-20)
(0.00150117 0.00162598 4.52102e-21)
(0.00176152 -0.0002452 1.74635e-20)
(0.00171771 0.000430472 7.51684e-22)
(0.000753585 -0.00119017 0)
(0.00111853 -0.00107816 -1.59544e-20)
(0.00057197 -0.00102335 0)
(-0.00449983 -0.00460409 0)
(-0.00395344 -0.00600874 0)
(-0.00390641 -0.00645264 0)
(-0.004557 -0.00270673 1.84765e-21)
(-0.00431435 -0.00420721 8.22263e-23)
(-0.00412408 -0.000992357 -1.86114e-21)
(-0.00416917 -0.00244741 1.7746e-21)
(-0.00333574 0.000396073 -9.86171e-21)
(-0.00362168 -0.000919171 -2.73777e-21)
(-0.00232973 0.00135111 2.48459e-20)
(-0.00280577 0.000281741 1.16682e-20)
(-0.00122153 0.001874 3.91948e-20)
(-0.00180798 0.00107617 1.57097e-20)
(-0.000168583 0.00190726 2.79019e-20)
(-0.000801043 0.0014118 1.13338e-20)
(0.000657896 0.00144929 1.99493e-20)
(9.37494e-05 0.00131521 4.57091e-21)
(0.00110326 0.000622222 -1.697e-20)
(0.000731089 0.000809392 -3.94177e-21)
(0.00110957 -0.000341584 -3.30079e-20)
(0.00103627 0.000116163 -1.3118e-20)
(0.00077009 -0.000996873 -1.6038e-20)
(0.000875398 -0.000828749 -5.94602e-22)
(0.000783388 -0.000911856 0)
(-0.00375 -0.00549265 8.26438e-23)
(-0.00322623 -0.00650687 0)
(-0.00315482 -0.00713382 0)
(-0.00389609 -0.00379124 8.02153e-23)
(-0.00360854 -0.00489496 1.52968e-22)
(-0.00362637 -0.00221845 9.11984e-22)
(-0.00356869 -0.0033 -1.53244e-22)
(-0.0030451 -0.000901185 1.91391e-20)
(-0.00318071 -0.00188182 9.99664e-22)
(-0.00225391 8.52427e-05 2.44814e-21)
(-0.0025518 -0.000732645 7.92235e-21)
(-0.00137644 0.000661376 -1.24439e-20)
(-0.00176559 8.68873e-05 -1.73671e-20)
(-0.00052995 0.00084629 -1.23244e-20)
(-0.000940912 0.000530029 -3.05367e-21)
(0.000175206 0.000681174 -1.9525e-20)
(-0.000180899 0.000622077 -3.30169e-20)
(0.000627125 0.000232113 1.33273e-22)
(0.000387105 0.000382842 1.07067e-20)
(0.000818386 -0.000352131 1.95337e-20)
(0.000739712 -9.66287e-06 3.97713e-21)
(0.000814279 -0.000799912 1.5576e-20)
(0.000827813 -0.000630231 4.53005e-20)
(0.000889954 -0.000789075 0)
(-0.00306945 -0.00580575 7.02635e-23)
(-0.00257997 -0.00651782 0)
(-0.00250706 -0.00727719 0)
(-0.00325455 -0.00426602 6.96848e-23)
(-0.0029475 -0.00505817 1.30798e-22)
(-0.00308606 -0.00281715 -7.03815e-23)
(-0.00296106 -0.00359856 1.10352e-21)
(-0.00264373 -0.00157383 -1.02092e-20)
(-0.00267408 -0.00227662 8.49576e-22)
(-0.00201447 -0.000605236 -1.21191e-20)
(-0.00217188 -0.00117938 -3.11685e-21)
(-0.00129328 3.50614e-05 -8.33847e-21)
(-0.00152854 -0.000359495 -4.582e-21)
(-0.000581999 0.000332064 -2.36976e-20)
(-0.000841312 0.000143306 8.79203e-21)
(2.60366e-05 0.000320275 -2.70267e-21)
(-0.000188062 0.000349699 9.32027e-21)
(0.000467958 9.0382e-05 1.47603e-20)
(0.000329883 0.000260672 2.85017e-20)
(0.000742778 -0.000284346 2.97942e-20)
(0.000684991 2.51101e-05 3.59276e-21)
(0.000846371 -0.000651514 2.97942e-20)
(0.000868435 -0.000424909 2.60337e-20)
(0.000928921 -0.000654201 0)
(-0.00244335 -0.00568022 6.04875e-23)
(-0.00199554 -0.00614013 0)
(-0.00193946 -0.00702002 0)
(-0.00262928 -0.00426891 1.30138e-21)
(-0.00231985 -0.00479962 6.07676e-23)
(-0.00251444 -0.00292309 2.0335e-21)
(-0.00234678 -0.00345039 -6.61863e-24)
(-0.00216051 -0.00174815 8.1723e-21)
(-0.002116 -0.00221293 8.57595e-22)
(-0.00164008 -0.00080932 4.3525e-21)
(-0.00169514 -0.00116926 6.99456e-21)
(-0.00103372 -0.000151552 1.21821e-20)
(-0.00114911 -0.000367596 -5.49836e-21)
(-0.000425398 0.000209157 4.22103e-20)
(-0.000562025 0.000153834 1.79671e-20)
(0.00010806 0.000284609 4.07328e-20)
(-9.13547e-07 0.000409231 1.42142e-20)
(0.000517651 0.000159072 1.73634e-20)
(0.000460193 0.000381785 9.94341e-21)
(0.000791776 -0.00012277 -2.36634e-22)
(0.000774552 0.000201638 3.4555e-20)
(0.000875571 -0.000482084 -3.79708e-21)
(0.000938595 -0.000184636 -3.178e-20)
(0.000905831 -0.000499714 2.7527e-20)
(-0.00185694 -0.00518 0)
(-0.0014565 -0.00541793 0)
(-0.0014324 -0.00642019 0)
(-0.00201354 -0.00387172 -1.20897e-21)
(-0.00171464 -0.00417155 -1.75791e-22)
(-0.00191532 -0.00261545 -1.20897e-21)
(-0.00172377 -0.00291544 -2.28606e-21)
(-0.00161097 -0.00150728 -2.21377e-22)
(-0.00151431 -0.00175675 7.59017e-22)
(-0.00116221 -0.000611551 -2.89642e-21)
(-0.00114167 -0.00077339 -9.4027e-21)
(-0.000641457 3.10579e-05 -1.87158e-22)
(-0.000662889 -1.1163e-05 5.09754e-21)
(-0.000125497 0.000384564 -1.02715e-20)
(-0.000162727 0.000490863 -8.59494e-21)
(0.000346803 0.00050456 -1.6794e-20)
(0.000325153 0.000726939 -1.01085e-20)
(0.000693262 0.000402069 2.7281e-20)
(0.000701926 0.000694878 -2.9985e-20)
(0.000897569 0.000127888 3.07963e-21)
(0.000931941 0.000495807 7.70969e-21)
(0.000885592 -0.000268742 -3.37508e-22)
(0.000998384 9.72995e-05 -3.14697e-20)
(0.000822944 -0.000317849 8.22313e-22)
(-0.00129985 -0.0043376 -1.76586e-22)
(-0.00094919 -0.00430777 0)
(-0.000972468 -0.00550018 0)
(-0.0014028 -0.00311424 -1.25308e-21)
(-0.00111614 -0.00313122 3.51929e-22)
(-0.00129256 -0.00194001 -3.14041e-22)
(-0.00107796 -0.00195645 -2.17527e-23)
(-0.00100939 -0.000904038 -8.33675e-21)
(-0.00085971 -0.000881131 7.65797e-22)
(-0.000610097 -7.11371e-05 -1.49825e-21)
(-0.0005107 2.12966e-05 -1.02603e-20)
(-0.000164321 0.000499032 -3.54366e-21)
(-9.10888e-05 0.000706663 2.23486e-21)
(0.00029339 0.000847385 -8.46238e-21)
(0.000350181 0.00112149 -2.1438e-20)
(0.000676991 0.000926653 -2.3269e-20)
(0.00073635 0.00127878 -2.89815e-21)
(0.000921272 0.000776095 -4.97232e-20)
(0.000999159 0.001172 4.89795e-21)
(0.00100714 0.000451121 -2.69703e-20)
(0.00110379 0.000885305 -9.88777e-22)
(0.000856577 -1.55888e-05 -3.03029e-20)
(0.00101989 0.000417894 -3.38087e-21)
(0.000685992 -0.000107225 -2.7055e-20)
(-0.000761108 -0.003034 5.34118e-22)
(-0.000440311 -0.0022735 4.27408e-22)
(-0.000554072 -0.00415258 0)
(-0.000781575 -0.00187483 1.58536e-21)
(-0.000469087 -0.00123518 5.68905e-22)
(-0.000630706 -0.000786486 1.05124e-21)
(-0.000352555 -0.000245127 1.05573e-21)
(-0.000344755 0.000146382 -1.00337e-21)
(-0.000113082 0.000615639 6.9551e-22)
(2.44756e-05 0.000870658 -6.67898e-21)
(0.000206803 0.0012898 -1.70288e-21)
(0.000430135 0.00136484 -1.5663e-20)
(0.000555545 0.0017405 -1.65927e-20)
(0.000798994 0.00158371 -1.5914e-20)
(0.000874368 0.00193884 3.28553e-20)
(0.00106336 0.00154195 2.54424e-20)
(0.00110908 0.0019011 -5.874e-21)
(0.00116991 0.00127353 5.40674e-20)
(0.00120812 0.00163656 7.31915e-21)
(0.00109346 0.000831811 2.27561e-20)
(0.00114603 0.00121889 -2.12062e-21)
(0.000785187 0.000266154 0)
(0.000908039 0.000678145 -2.52903e-20)
(0.000474926 0.000100406 2.52998e-20)
(-0.000152914 -0.000404469 4.36008e-22)
(-0.000137768 -0.00134687 -3.32088e-22)
(-4.44379e-05 0.000478701 6.76449e-24)
(0.000165036 0.00124639 6.98495e-22)
(0.000441073 0.00184104 6.7658e-23)
(0.000737722 0.00222382 -1.16854e-20)
(0.00100643 0.00237642 3.20161e-20)
(0.00119528 0.00229862 4.31323e-20)
(0.00126226 0.00202069 -2.42179e-20)
(0.00117739 0.00158064 -4.92742e-20)
(0.000941872 0.0010456 -5.04552e-20)
(0.000554659 0.000457219 9.46357e-24)
(-0.00914845 0.00279717 1.80664e-20)
(-0.00748006 0.00497128 2.61643e-21)
(-0.0110824 0.00313114 -4.28489e-21)
(-0.0105757 0.00492203 3.74408e-21)
(-0.00938571 0.00328047 -2.11042e-20)
(-0.00807257 0.00481818 -1.84783e-21)
(-0.0068403 0.00333624 -2.81794e-20)
(-0.00575891 0.00432001 0)
(-0.00450464 0.00286882 -3.56972e-20)
(-0.00322615 0.00410559 -4.56526e-20)
(-0.00269551 0.00167902 1.55401e-20)
(-0.00112223 0.00322223 -1.39097e-20)
(-0.00162977 -8.19406e-05 3.42319e-20)
(0.000377901 0.00173104 4.96853e-20)
(-0.00140289 -0.00217855 2.77321e-20)
(0.00110514 -0.000247268 9.6339e-21)
(-0.00206428 -0.00431132 1.71765e-20)
(0.000986842 -0.00240427 1.72753e-20)
(-0.00354054 -0.00615994 -4.08938e-21)
(4.16956e-05 -0.00446876 0)
(-0.00567778 -0.0074502 -4.05938e-21)
(-0.00163856 -0.00614453 -4.11289e-21)
(-0.00387258 -0.00719394 6.08398e-23)
(-0.00822722 -0.0079829 2.97754e-23)
(-0.00723692 0.00710389 -1.52067e-20)
(-0.00568153 0.00678494 0)
(-0.0067479 0.00659269 4.36591e-21)
(-0.00705472 0.00774241 -2.47979e-20)
(-0.00434917 0.00566254 2.07562e-20)
(-0.00387381 0.00692844 8.57283e-22)
(-0.00185142 0.00509633 -1.74113e-20)
(-0.00147521 0.0058716 0)
(0.000450079 0.00447173 -2.34588e-20)
(0.00100349 0.00534225 -6.93849e-22)
(0.00222337 0.0032922 1.97013e-20)
(0.00299119 0.00444013 -1.76971e-20)
(0.00331124 0.00158854 2.50063e-20)
(0.0044352 0.00302437 -7.52613e-21)
(0.0036079 -0.000457655 -1.08036e-21)
(0.00517192 0.00115463 3.73957e-21)
(0.00311533 -0.00256497 0)
(0.00514687 -0.000922043 7.24041e-21)
(0.00187228 -0.00445357 0)
(0.0043759 -0.0029431 0)
(1.83925e-05 -0.00588096 2.78316e-23)
(0.002935 -0.00465456 3.13732e-21)
(0.000977077 -0.00584346 -4.46079e-22)
(-0.00224233 -0.0066683 2.88287e-23)
(-0.00529271 0.00798065 -9.55989e-21)
(-0.00466468 0.00648042 0)
(-0.00376591 0.00829836 -2.89866e-20)
(-0.00455366 0.00886023 3.44576e-21)
(-0.00090292 0.00706582 -2.01261e-20)
(-0.00103206 0.00797813 1.15995e-20)
(0.001612 0.00614313 1.7207e-20)
(0.00140196 0.00669129 0)
(0.00377151 0.00534873 5.35151e-21)
(0.00371632 0.00592143 2.25286e-20)
(0.00544544 0.00421869 -4.49235e-20)
(0.00555412 0.00501636 5.46227e-21)
(0.00650572 0.00263438 -2.95185e-20)
(0.00691661 0.00372397 -5.53743e-20)
(0.00685782 0.000720286 1.22728e-20)
(0.00765914 0.0020238 -5.88864e-21)
(0.00648536 -0.00128619 7.28088e-21)
(0.00771755 0.000100512 6.70276e-21)
(0.0054332 -0.00313407 3.15485e-21)
(0.00709852 -0.00180967 -8.53993e-22)
(0.00381086 -0.00460305 2.67394e-21)
(0.00586839 -0.00347506 6.75844e-22)
(0.00416113 -0.00470942 -1.30522e-22)
(0.00179799 -0.00553061 -6.59178e-22)
(-0.00371078 0.00767568 1.2811e-20)
(-0.0037582 0.00550446 -3.14561e-21)
(-0.00153933 0.00883139 4.45838e-20)
(-0.00280317 0.00873928 1.95586e-20)
(0.00136997 0.00768089 3.17728e-20)
(0.000750981 0.00824821 1.69339e-20)
(0.00377433 0.00658314 5.25738e-21)
(0.00321354 0.00698706 -4.07205e-21)
(0.00574727 0.00566964 2.2879e-20)
(0.00533061 0.00606462 -1.80634e-20)
(0.00728133 0.00459591 -4.09888e-21)
(0.00697877 0.00515191 2.20097e-20)
(0.00829211 0.00317138 -3.20058e-20)
(0.00822186 0.00398345 1.59866e-20)
(0.00868509 0.0014438 -1.14452e-20)
(0.00894481 0.00247738 -1.06973e-20)
(0.00842942 -0.000399773 -1.48442e-21)
(0.00907094 0.000750327 -9.08274e-21)
(0.00755546 -0.00213762 -3.37143e-21)
(0.00858868 -0.00099727 7.9997e-21)
(0.00616008 -0.00357024 -2.13827e-21)
(0.00755021 -0.0025597 -2.51373e-21)
(0.00607049 -0.00376837 1.69002e-21)
(0.0043916 -0.00455132 3.55693e-22)
(-0.00264484 0.00675946 3.11266e-21)
(-0.00295981 0.00441269 -3.17806e-21)
(-0.000180156 0.00844269 -7.28006e-21)
(-0.00164434 0.00784115 1.02446e-20)
(0.00271863 0.00766455 -1.86089e-20)
(0.00176612 0.00787492 -1.84556e-20)
(0.00501209 0.0066002 -2.75638e-20)
(0.00422338 0.00685198 -4.11406e-21)
(0.00679337 0.00564249 -1.91149e-20)
(0.00617249 0.00591956 -1.00956e-20)
(0.00816089 0.00462208 4.23888e-20)
(0.00763531 0.005023 2.2813e-20)
(0.0090863 0.00335064 3.74882e-20)
(0.00873846 0.00396657 2.35706e-20)
(0.00949333 0.00182412 -8.49152e-21)
(0.00941152 0.00264504 2.24192e-21)
(0.00933263 0.000176247 3.00836e-22)
(0.00957616 0.00112549 -1.06021e-20)
(0.00861677 -0.00140689 8.9092e-21)
(0.00920434 -0.000433685 2.23399e-21)
(0.00742357 -0.0027488 1.3423e-21)
(0.00833082 -0.00185619 0)
(0.00705033 -0.00299192 9.27319e-22)
(0.00588076 -0.00371672 1.77578e-21)
(-0.001848 0.00561054 3.51256e-21)
(-0.00226754 0.00342729 -2.52687e-20)
(0.000604281 0.0075108 7.34645e-22)
(-0.000867894 0.00661385 -1.94594e-20)
(0.00341514 0.00717221 -3.5164e-21)
(0.00229627 0.00708031 -3.22256e-21)
(0.00560304 0.0062984 1.3567e-20)
(0.00468543 0.0063919 -3.74994e-21)
(0.00722504 0.00539677 3.11156e-20)
(0.00649743 0.00557519 -2.82259e-21)
(0.00843314 0.00444872 3.29224e-21)
(0.00780288 0.00474365 -3.65798e-21)
(0.00925857 0.00331954 -1.21822e-20)
(0.0087707 0.00379521 -1.00464e-20)
(0.00964728 0.00198345 1.64553e-22)
(0.00937297 0.00264062 2.08221e-21)
(0.00954792 0.000535039 -8.82347e-21)
(0.00954399 0.00131812 -2.0787e-21)
(0.00895755 -0.00087434 -6.75491e-21)
(0.00924764 -4.92711e-05 -6.78803e-21)
(0.00793419 -0.002094 -4.22659e-22)
(0.00850231 -0.00131502 -2.06236e-21)
(0.00738393 -0.00234811 -6.68139e-22)
(0.00658368 -0.00300565 -3.85775e-22)
(-0.00122331 0.00448939 -4.84957e-20)
(-0.00166923 0.00260851 -4.00497e-21)
(0.00107925 0.00636798 -2.21898e-20)
(-0.000290325 0.00535775 5.6375e-21)
(0.00372018 0.0063991 -3.07285e-21)
(0.00257813 0.00609807 3.14108e-22)
(0.00578455 0.00578322 -2.03057e-20)
(0.00482447 0.00573484 -3.78636e-21)
(0.00727249 0.00501459 -3.84266e-20)
(0.00649859 0.00510027 1.10785e-20)
(0.00834029 0.00416718 -1.80268e-20)