/*--------------------------------*- C++ -*----------------------------------*\
| =========                 |                                                 |
| \\      /  F ield         | OpenFOAM: The Open Source CFD Toolbox           |
|  \\    /   O peration     | Version:  v1806                                 |
|   \\  /    A nd           | Web:      www.OpenFOAM.com                      |
|    \\/     M anipulation  |                                                 |
\*---------------------------------------------------------------------------*/
FoamFile
{
    version     2.0;
    format      ascii;
    class       surfaceScalarField;
    location    "1";
    object      meshPhi;
}
// * * * * * * * * * * * * * * * * * * * * * * * * * * * * * * * * * * * * * //

dimensions      [0 3 -1 0 0 0 0];
oriented        oriented;


internalField   nonuniform List<scalar> 
1460
(
-3.33753e-06
3.28713e-15
-3.33753e-06
-4.36213e-15
-3.33753e-06
-4.78448e-15
-3.33753e-06
2.54451e-15
-3.33753e-06
2.87784e-15
-3.33753e-06
-5.11934e-15
-3.33753e-06
6.44156e-16
-3.33753e-06
4.28935e-15
-3.33753e-06
2.17234e-15
-3.33753e-06
-1.83577e-15
-3.33753e-06
6.43939e-15
-9.54612e-15
-3.33753e-06
-3.73019e-06
7.44965e-15
-3.73019e-06
-1.226e-14
-3.73019e-06
-8.14157e-16
-3.73019e-06
1.17814e-14
-3.73019e-06
-8.29293e-15
-3.73019e-06
-1.63276e-15
-3.73019e-06
-5.38313e-15
-3.73019e-06
9.19277e-15
-3.73019e-06
7.19458e-15
-3.73019e-06
-1.37712e-14
-3.73019e-06
5.43204e-15
1.85071e-15
-3.73019e-06
-4.12284e-06
-4.75507e-15
-4.12284e-06
1.26151e-14
-4.12284e-06
-1.30723e-14
-4.12284e-06
6.12105e-15
-4.12284e-06
-5.07383e-15
-4.12284e-06
2.66488e-15
-4.12284e-06
-3.46064e-15
-4.12284e-06
-5.11636e-16
-4.12284e-06
-4.46676e-15
-4.12284e-06
9.61699e-15
-4.12284e-06
3.36286e-15
-9.46669e-15
-4.12284e-06
-4.51549e-06
-5.07349e-16
-4.51549e-06
4.7429e-15
-4.51549e-06
-8.4907e-15
-4.51549e-06
-1.6381e-15
-4.51549e-06
-1.23673e-15
-4.51549e-06
9.82192e-15
-4.51549e-06
6.03442e-15
-4.51549e-06
-4.39309e-15
-4.51549e-06
-8.55943e-15
-4.51549e-06
1.13661e-14
-4.51549e-06
-9.24537e-16
-7.80514e-15
-4.51549e-06
-4.90814e-06
4.52034e-15
-4.90814e-06
-4.63246e-15
-4.90814e-06
-3.34571e-15
-4.90814e-06
9.86575e-15
-4.90814e-06
-1.69338e-14
-4.90814e-06
1.81314e-14
-4.90814e-06
-1.1478e-15
-4.90814e-06
-1.84928e-14
-4.90814e-06
1.46248e-14
-4.90814e-06
-2.93763e-15
-4.90814e-06
-3.24132e-15
7.73916e-15
-4.90814e-06
-5.30079e-06
1.0328e-14
-5.30079e-06
-1.5511e-14
-5.30079e-06
2.69963e-15
-5.30079e-06
1.92114e-15
-5.30079e-06
7.03085e-15
-5.30079e-06
-1.64275e-15
-5.30079e-06
-1.09773e-15
-5.30079e-06
-4.66856e-15
-5.30079e-06
-6.83403e-15
-5.30079e-06
2.75399e-15
-5.30079e-06
6.57027e-15
-6.30498e-15
-5.30079e-06
-5.69344e-06
-6.59285e-15
-5.69344e-06
-4.38412e-15
-5.69344e-06
9.64527e-15
-5.69344e-06
-7.26677e-15
-5.69344e-06
1.22963e-14
-5.69344e-06
-1.48823e-14
-5.69344e-06
2.21421e-14
-5.69344e-06
9.13911e-16
-5.69344e-06
-1.19305e-14
-5.69344e-06
4.04421e-15
-5.69344e-06
-1.42354e-14
1.19309e-14
-5.69344e-06
-6.08609e-06
-7.92367e-16
-6.08609e-06
8.21293e-15
-6.08609e-06
-6.93303e-15
-6.08609e-06
4.78428e-15
-6.08609e-06
-4.7758e-15
-6.08609e-06
-6.65478e-15
-6.08609e-06
1.41596e-14
-6.08609e-06
-1.59281e-14
-6.08609e-06
1.66865e-14
-6.08609e-06
-1.44565e-14
-6.08609e-06
1.75216e-14
-2.05737e-14
-6.08609e-06
-6.47874e-06
5.61343e-15
-6.47874e-06
-3.87615e-15
-6.47874e-06
2.86884e-16
-6.47874e-06
-6.17625e-15
-6.47874e-06
1.01509e-15
-6.47874e-06
2.72523e-15
-6.47874e-06
4.99487e-15
-6.47874e-06
1.5903e-15
-6.47874e-06
-9.69377e-15
-6.47874e-06
8.0797e-15
-6.47874e-06
-5.49495e-15
-6.8183e-16
-6.47874e-06
-6.8714e-06
1.29636e-14
-6.8714e-06
-1.76327e-14
-6.8714e-06
8.40724e-15
-6.8714e-06
-1.84614e-14
-6.8714e-06
1.66097e-14
-6.8714e-06
4.17039e-15
-6.8714e-06
-5.35219e-15
-6.8714e-06
-3.19648e-15
-6.8714e-06
8.68936e-15
-6.8714e-06
9.86715e-15
-6.8714e-06
-3.13481e-14
2.17015e-14
-6.8714e-06
-7.26405e-06
-8.68377e-15
-7.26405e-06
-3.11478e-15
-7.26405e-06
1.80102e-14
-7.26405e-06
-3.82881e-15
-7.26405e-06
-4.48638e-15
-7.26405e-06
1.53505e-14
-7.26405e-06
-3.68306e-15
-7.26405e-06
-1.08013e-14
-7.26405e-06
1.67666e-15
-7.26405e-06
4.70466e-15
-7.26405e-06
5.74877e-15
4.46453e-15
-7.26405e-06
-7.6567e-06
-1.34081e-15
-7.6567e-06
1.32429e-14
-7.6567e-06
-3.59148e-15
-7.6567e-06
-1.72768e-14
-7.6567e-06
2.44146e-15
-7.6567e-06
1.56621e-14
-7.6567e-06
-3.67926e-15
-7.6567e-06
-1.67924e-14
-7.6567e-06
-3.29398e-15
-7.6567e-06
1.3406e-14
-7.6567e-06
-3.19278e-15
-7.6567e-06
-1.48088e-14
-3.33753e-06
1.06855e-14
-3.33753e-06
-6.52401e-15
-3.33753e-06
4.52098e-15
-3.33753e-06
-1.02074e-14
-3.33753e-06
7.92562e-15
-3.33753e-06
-3.85215e-15
-3.33753e-06
1.69605e-15
-3.33753e-06
-6.00987e-15
-3.33753e-06
8.07382e-15
-3.33753e-06
1.89793e-15
-3.33753e-06
1.39235e-15
-6.20584e-15
-3.73019e-06
8.67986e-16
-3.73019e-06
-1.18035e-15
-3.73019e-06
-6.49527e-15
-3.73019e-06
1.32923e-15
-3.73019e-06
-3.26188e-15
-3.73019e-06
1.64638e-15
-3.73019e-06
-9.20404e-16
-3.73019e-06
6.09146e-15
-3.73019e-06
1.31801e-15
-3.73019e-06
-1.27987e-15
-3.73019e-06
-5.17755e-15
6.31517e-15
-4.12284e-06
1.06597e-15
-4.12284e-06
2.18792e-15
-4.12284e-06
7.33728e-15
-4.12284e-06
-2.2397e-15
-4.12284e-06
-5.39934e-15
-4.12284e-06
5.18211e-15
-4.12284e-06
-2.3773e-15
-4.12284e-06
4.38685e-15
-4.12284e-06
-6.96841e-15
-4.12284e-06
-4.90987e-15
-4.12284e-06
4.03479e-15
4.12561e-15
-4.51549e-06
2.12725e-15
-4.51549e-06
6.97247e-15
-4.51549e-06
-6.82053e-15
-4.51549e-06
2.29063e-15
-4.51549e-06
-9.67531e-16
-4.51549e-06
-3.03305e-15
-4.51549e-06
8.28144e-15
-4.51549e-06
-1.64313e-14
-4.51549e-06
1.90747e-15
-4.51549e-06
9.50938e-15
-4.51549e-06
-3.79306e-15
1.54641e-15
-4.90814e-06
1.46075e-15
-4.90814e-06
-1.78875e-15
-4.90814e-06
-7.25055e-15
-4.90814e-06
-2.59898e-15
-4.90814e-06
-3.8186e-15
-4.90814e-06
-2.19728e-15
-4.90814e-06
1.25135e-14
-4.90814e-06
-4.48228e-15
-4.90814e-06
1.21432e-14
-4.90814e-06
-1.41289e-14
-4.90814e-06
7.52304e-15
-1.52514e-15
-5.30079e-06
1.71459e-15
-5.30079e-06
-1.0875e-14
-5.30079e-06
1.17931e-14
-5.30079e-06
-3.34253e-15
-5.30079e-06
1.63073e-15
-5.30079e-06
7.81442e-15
-5.30079e-06
1.94369e-16
-5.30079e-06
-2.11749e-15
-5.30079e-06
2.36325e-15
-5.30079e-06
2.12743e-15
-5.30079e-06
-1.3149e-15
-5.23292e-15
-5.69344e-06
3.04253e-15
-5.69344e-06
-5.9197e-15
-5.69344e-06
-5.89562e-15
-5.69344e-06
1.09594e-14
-5.69344e-06
9.69719e-15
-5.69344e-06
-1.29051e-14
-5.69344e-06
-6.99235e-15
-5.69344e-06
1.47607e-14
-5.69344e-06
-8.33756e-15
-5.69344e-06
-2.49612e-15
-5.69344e-06
1.17054e-14
-9.29948e-15
-6.08609e-06
1.99762e-14
-6.08609e-06
-1.78125e-14
-6.08609e-06
1.47762e-14
-6.08609e-06
-2.89259e-15
-6.08609e-06
-5.63092e-15
-6.08609e-06
-1.24257e-14
-6.08609e-06
1.82735e-14
-6.08609e-06
-1.5461e-14
-6.08609e-06
5.08657e-15
-6.08609e-06
1.71583e-14
-6.08609e-06
-2.33519e-14
1.10531e-14
-6.47874e-06
2.51661e-15
-6.47874e-06
7.64488e-15
-6.47874e-06
-5.3021e-15
-6.47874e-06
-9.7171e-15
-6.47874e-06
1.4341e-14
-6.47874e-06
-8.39994e-16
-6.47874e-06
-1.34129e-14
-6.47874e-06
4.94582e-15
-6.47874e-06
-8.46671e-15
-6.47874e-06
1.1949e-14
-6.47874e-06
-9.60014e-15
7.5587e-15
-6.8714e-06
-1.7144e-14
-6.8714e-06
-3.41078e-15
-6.8714e-06
1.95877e-14
-6.8714e-06
-1.09877e-14
-6.8714e-06
2.25686e-14
-6.8714e-06
-2.47377e-14
-6.8714e-06
1.47467e-14
-6.8714e-06
1.09652e-15
-6.8714e-06
3.5243e-15
-6.8714e-06
-2.08063e-14
-6.8714e-06
5.57222e-15
3.57189e-15
-7.26405e-06
-1.65695e-14
-7.26405e-06
3.66028e-15
-7.26405e-06
-2.79676e-15
-7.26405e-06
6.8201e-15
-7.26405e-06
-6.07019e-15
-7.26405e-06
1.44688e-14
-7.26405e-06
-3.0717e-14
-7.26405e-06
5.81264e-15
-7.26405e-06
1.64595e-14
-7.26405e-06
1.57497e-15
-7.26405e-06
-6.89787e-15
-1.10235e-15
-7.6567e-06
2.56837e-14
-7.6567e-06
-1.05198e-14
-7.6567e-06
-2.73108e-15
-7.6567e-06
1.50689e-14
-7.6567e-06
1.81468e-15
-7.6567e-06
-1.12678e-14
-7.6567e-06
-1.68643e-16
-7.6567e-06
-6.61175e-15
-7.6567e-06
8.52406e-15
-7.6567e-06
-4.70947e-15
-7.6567e-06
1.02247e-14
-6.08421e-15
-3.33753e-06
-5.0333e-16
-3.33753e-06
6.06267e-15
-3.33753e-06
-8.58571e-15
-3.33753e-06
-9.03e-16
-3.33753e-06
-3.88452e-16
-3.33753e-06
4.32459e-15
-3.33753e-06
-2.07064e-15
-3.33753e-06
-2.34662e-15
-3.33753e-06
-1.94662e-15
-3.33753e-06
2.68425e-15
-3.33753e-06
3.12067e-15
-2.84085e-15
-3.33753e-06
-3.73019e-06
2.92985e-15
-3.73019e-06
-1.39372e-15
-3.73019e-06
-5.23837e-15
-3.73019e-06
7.55039e-15
-3.73019e-06
2.05212e-15
-3.73019e-06
-5.89196e-15
-3.73019e-06
-8.77403e-15
-3.73019e-06
1.24511e-14
-3.73019e-06
-5.23509e-15
-3.73019e-06
3.7115e-15
-3.73019e-06
1.09253e-15
-2.50743e-15
-3.73019e-06
-4.12284e-06
6.94786e-15
-4.12284e-06
-1.01376e-14
-4.12284e-06
-1.25628e-15
-4.12284e-06
5.79427e-16
-4.12284e-06
6.32009e-15
-4.12284e-06
-5.08807e-15
-4.12284e-06
5.95224e-15
-4.12284e-06
1.54259e-15
-4.12284e-06
-1.00981e-14
-4.12284e-06
3.96557e-15
-4.12284e-06
9.10677e-15
-2.04419e-15
-4.12284e-06
-4.51549e-06
-7.16378e-15
-4.51549e-06
-1.63898e-15
-4.51549e-06
3.54507e-15
-4.51549e-06
1.04088e-14
-4.51549e-06
-7.48408e-15
-4.51549e-06
3.78746e-15
-4.51549e-06
-6.00585e-16
-4.51549e-06
5.32782e-15
-4.51549e-06
-5.27904e-15
-4.51549e-06
5.20087e-15
-4.51549e-06
-5.34205e-15
-2.35133e-15
-4.51549e-06
-4.90814e-06
-3.22494e-15
-4.90814e-06
7.89861e-15
-4.90814e-06
-1.0811e-14
-4.90814e-06
2.67392e-15
-4.90814e-06
-1.20951e-15
-4.90814e-06
3.12424e-15
-4.90814e-06
-5.22149e-16
-4.90814e-06
-7.96177e-15
-4.90814e-06
6.83495e-15
-4.90814e-06
5.49594e-15
-4.90814e-06
-1.17959e-14
1.36475e-14
-4.90814e-06
-5.30079e-06
1.26795e-15
-5.30079e-06
-2.44498e-15
-5.30079e-06
-6.33671e-15
-5.30079e-06
1.47147e-14
-5.30079e-06
-1.49701e-15
-5.30079e-06
-2.32175e-15
-5.30079e-06
-8.83856e-15
-5.30079e-06
6.67254e-15
-5.30079e-06
3.05968e-15
-5.30079e-06
-6.44645e-15
-5.30079e-06
-2.64238e-15
5.781e-17
-5.30079e-06
-5.69344e-06
6.43809e-15
-5.69344e-06
-1.46605e-14
-5.69344e-06
-3.3742e-16
-5.69344e-06
5.84005e-15
-5.69344e-06
5.59837e-15
-5.69344e-06
-2.8598e-15
-5.69344e-06
1.18079e-14
-5.69344e-06
-9.42406e-15
-5.69344e-06
-2.63922e-15
-5.69344e-06
7.27531e-15
-5.69344e-06
-6.39346e-15
1.03553e-15
-5.69344e-06
-6.08609e-06
1.24498e-14
-6.08609e-06
-3.40321e-15
-6.08609e-06
-1.87205e-14
-6.08609e-06
1.79641e-14
-6.08609e-06
-8.66828e-15
-6.08609e-06
-3.44746e-15
-6.08609e-06
1.63863e-15
-6.08609e-06
5.92224e-15
-6.08609e-06
4.83418e-15
-6.08609e-06
-6.37125e-15
-6.08609e-06
-1.4215e-14
3.26719e-15
-6.08609e-06
-6.47874e-06
-7.65831e-15
-6.47874e-06
9.72932e-15
-6.47874e-06
-1.29268e-14
-6.47874e-06
9.91093e-15
-6.47874e-06
-1.17032e-14
-6.47874e-06
1.47156e-14
-6.47874e-06
-8.30867e-15
-6.47874e-06
1.14562e-14
-6.47874e-06
-1.57007e-15
-6.47874e-06
9.30372e-15
-6.47874e-06
-1.91407e-14
4.57483e-15
-6.47874e-06
-6.8714e-06
-1.82838e-15
-6.8714e-06
-4.3323e-15
-6.8714e-06
-5.94481e-15
-6.8714e-06
2.07687e-14
-6.8714e-06
8.35981e-16
-6.8714e-06
-1.1636e-14
-6.8714e-06
-8.61957e-15
-6.8714e-06
7.24973e-15
-6.8714e-06
1.72909e-14
-6.8714e-06
-2.84759e-14
-6.8714e-06
1.50975e-14
-1.39783e-14
-6.8714e-06
-7.26405e-06
4.50417e-15
-7.26405e-06
1.01508e-14
-7.26405e-06
-2.80783e-14
-7.26405e-06
1.16671e-14
-7.26405e-06
7.6882e-15
-7.26405e-06
-1.33407e-15
-7.26405e-06
6.43344e-15
-7.26405e-06
-1.33402e-14
-7.26405e-06
-1.40562e-14
-7.26405e-06
1.27186e-14
-7.26405e-06
-1.1012e-14
3.00155e-14
-7.26405e-06
-7.6567e-06
1.15139e-14
-7.6567e-06
-4.95941e-15
-7.6567e-06
-2.13636e-14
-7.6567e-06
3.18276e-14
-7.6567e-06
-2.5182e-14
-7.6567e-06
8.19663e-15
-7.6567e-06
6.96975e-15
-7.6567e-06
-7.9673e-15
-7.6567e-06
-5.23427e-15
-7.6567e-06
-4.27646e-15
-7.6567e-06
2.78115e-15
-7.6567e-06
1.06818e-14
-3.33753e-06
6.76317e-15
-3.33753e-06
7.84855e-16
-3.33753e-06
1.18775e-15
-3.33753e-06
-6.47313e-15
-3.33753e-06
1.28965e-15
-3.33753e-06
5.95157e-15
-3.33753e-06
-1.37853e-15
-3.33753e-06
-9.27617e-15
-3.33753e-06
4.35051e-15
-3.33753e-06
-1.62755e-15
-3.33753e-06
-2.38048e-15
4.20132e-15
-3.73019e-06
-3.49015e-15
-3.73019e-06
4.04142e-15
-3.73019e-06
1.42616e-15
-3.73019e-06
-3.24739e-15
-3.73019e-06
-7.85652e-15
-3.73019e-06
1.2766e-14
-3.73019e-06
-4.81756e-15
-3.73019e-06
1.564e-15
-3.73019e-06
-2.91295e-15
-3.73019e-06
-5.7041e-15
-3.73019e-06
5.79142e-15
1.69265e-15
-4.12284e-06
-4.55314e-15
-4.12284e-06
-3.45942e-15
-4.12284e-06
1.68582e-15
-4.12284e-06
7.67325e-16
-4.12284e-06
3.51152e-15
-4.12284e-06
-8.99975e-16
-4.12284e-06
-1.01303e-14
-4.12284e-06
1.53337e-14
-4.12284e-06
-1.20629e-14
-4.12284e-06
6.90613e-15
-4.12284e-06
-1.47824e-15
-1.41112e-15
-4.51549e-06
-4.8458e-15
-4.51549e-06
2.93081e-17
-4.51549e-06
1.96683e-15
-4.51549e-06
-3.85259e-15
-4.51549e-06
1.27342e-15
-4.51549e-06
7.23555e-15
-4.51549e-06
2.24699e-15
-4.51549e-06
-4.4736e-15
-4.51549e-06
-4.25066e-15
-4.51549e-06
2.85915e-15
-4.51549e-06
8.51106e-15
-5.11001e-15
-4.90814e-06
-6.09339e-15
-4.90814e-06
-9.31052e-15
-4.90814e-06
2.26907e-15
-4.90814e-06
9.54803e-16
-4.90814e-06
1.5743e-14
-4.90814e-06
-1.06022e-14
-4.90814e-06
-2.49368e-15
-4.90814e-06
1.1242e-14
-4.90814e-06
-1.50741e-14
-4.90814e-06
1.86745e-14
-4.90814e-06
-5.55609e-17
-9.40395e-15
-5.30079e-06
8.0774e-15
-5.30079e-06
-2.64297e-15
-5.30079e-06
-2.63587e-15
-5.30079e-06
-5.66494e-15
-5.30079e-06
2.97622e-15
-5.30079e-06
-1.83085e-15
-5.30079e-06
1.14154e-14
-5.30079e-06
-1.12144e-14
-5.30079e-06
1.57259e-14
-5.30079e-06
-6.6219e-15
-5.30079e-06
-1.06211e-14
7.79216e-15
-5.69344e-06
-7.85281e-15
-5.69344e-06
1.62641e-14
-5.69344e-06
2.58228e-15
-5.69344e-06
-1.97408e-14
-5.69344e-06
1.9762e-14
-5.69344e-06
-1.47361e-15
-5.69344e-06
-9.16275e-15
-5.69344e-06
1.09959e-15
-5.69344e-06
4.15947e-15
-5.69344e-06
-1.24788e-14
-5.69344e-06
1.27489e-15
3.88553e-15
-6.08609e-06
8.3545e-15
-6.08609e-06
5.85026e-15
-6.08609e-06
2.92474e-15
-6.08609e-06
-1.47449e-14
-6.08609e-06
5.10486e-15
-6.08609e-06
9.38457e-15
-6.08609e-06
-1.74543e-14
-6.08609e-06
-3.63506e-15
-6.08609e-06
1.82664e-14
-6.08609e-06
5.37082e-15
-6.08609e-06
-1.00565e-14
-6.16227e-16
-6.47874e-06
7.77322e-15
-6.47874e-06
-6.00094e-15
-6.47874e-06
3.28846e-15
-6.47874e-06
-8.96e-15
-6.47874e-06
-1.15491e-14
-6.47874e-06
2.16123e-14
-6.47874e-06
-1.42256e-15
-6.47874e-06
-7.77243e-15
-6.47874e-06
7.09962e-15
-6.47874e-06
-3.95274e-16
-6.47874e-06
3.65682e-15
-5.71305e-15
-6.8714e-06
8.4124e-15
-6.8714e-06
-6.49069e-16
-6.8714e-06
3.67343e-15
-6.8714e-06
-2.3861e-15
-6.8714e-06
7.65938e-15
-6.8714e-06
-2.64968e-15
-6.8714e-06
-1.0147e-14
-6.8714e-06
2.17177e-14
-6.8714e-06
-1.22808e-14
-6.8714e-06
-7.43076e-15
-6.8714e-06
1.90575e-14
-1.1405e-14
-7.26405e-06
-1.34546e-14
-7.26405e-06
9.33562e-15
-7.26405e-06
-1.95951e-14
-7.26405e-06
4.97677e-15
-7.26405e-06
-1.08849e-14
-7.26405e-06
1.02139e-14
-7.26405e-06
1.80185e-14
-7.26405e-06
-1.98628e-14
-7.26405e-06
2.10511e-15
-7.26405e-06
1.4923e-14
-7.26405e-06
-2.32184e-14
1.20855e-14
-7.6567e-06
-1.39606e-14
-7.6567e-06
1.61657e-14
-7.6567e-06
-2.04136e-14
-7.6567e-06
-2.57748e-15
-7.6567e-06
2.63458e-14
-7.6567e-06
-1.76189e-14
-7.6567e-06
9.36596e-15
-7.6567e-06
4.23655e-15
-7.6567e-06
-1.16518e-14
-7.6567e-06
8.32697e-15
-7.6567e-06
-7.97769e-15
6.7706e-15
-8.04935e-06
6.78209e-15
-8.04935e-06
-1.87826e-15
-8.04935e-06
6.32648e-15
-8.04935e-06
-8.34196e-16
-8.04935e-06
-2.17731e-14
-8.04935e-06
-1.9259e-15
-8.04935e-06
1.41945e-14
-8.04935e-06
5.23814e-15
-8.04935e-06
-9.91019e-15
-8.04935e-06
-1.05597e-14
-8.04935e-06
1.78272e-14
-1.41862e-14
-8.04935e-06
-8.442e-06
1.5685e-14
-8.442e-06
-1.85026e-14
-8.442e-06
1.45097e-14
-8.442e-06
-4.4798e-15
-8.442e-06
8.84698e-15
-8.442e-06
-2.206e-14
-8.442e-06
1.86481e-15
-8.442e-06
1.21701e-14
-8.442e-06
1.35716e-16
-8.442e-06
-9.45878e-15
-8.442e-06
-1.25271e-14
1.25447e-14
-8.442e-06
-8.83465e-06
-1.09149e-14
-8.83465e-06
-3.47251e-16
-8.83465e-06
3.04568e-14
-8.83465e-06
-2.48501e-14
-8.83465e-06
1.74877e-14
-8.83465e-06
-9.80947e-15
-8.83465e-06
4.33004e-15
-8.83465e-06
-9.48983e-15
-8.83465e-06
-5.67583e-15
-8.83465e-06
2.18238e-14
-8.83465e-06
5.2593e-15
-9.21039e-15
-8.83465e-06
-9.2273e-06
-9.2273e-06
-9.2273e-06
-9.2273e-06
-9.2273e-06
-9.2273e-06
-9.2273e-06
-9.2273e-06
-9.2273e-06
-9.2273e-06
-9.2273e-06
-9.2273e-06
-8.04935e-06
3.85781e-15
-8.04935e-06
2.17769e-14
-8.04935e-06
-1.38692e-15
-8.04935e-06
-1.98086e-14
-8.04935e-06
-2.56989e-15
-8.04935e-06
2.54922e-15
-8.04935e-06
2.09744e-14
-8.04935e-06
-1.17726e-14
-8.04935e-06
-1.01151e-14
-8.04935e-06
2.19263e-14
-8.04935e-06
-2.95849e-15
-1.1774e-14
-8.04935e-06
-8.442e-06
5.80949e-15
-8.442e-06
-1.72269e-14
-8.442e-06
6.19097e-16
-8.442e-06
7.12387e-15
-8.442e-06
6.33258e-15
-8.442e-06
1.86689e-14
-8.442e-06
-2.05108e-14
-8.442e-06
1.53261e-14
-8.442e-06
-2.92218e-14
-8.442e-06
1.59664e-14
-8.442e-06
-1.83445e-14
1.67284e-14
-8.442e-06
-8.83465e-06
4.58075e-15
-8.83465e-06
-5.87947e-15
-8.83465e-06
2.26882e-15
-8.83465e-06
-2.9262e-16
-8.83465e-06
2.83328e-15
-8.83465e-06
-1.09552e-14
-8.83465e-06
1.55467e-14
-8.83465e-06
-2.41606e-14
-8.83465e-06
2.03012e-14
-8.83465e-06
-2.60601e-14
-8.83465e-06
9.30165e-16
1.18266e-14
-8.83465e-06
-9.2273e-06
-9.2273e-06
-9.2273e-06
-9.2273e-06
-9.2273e-06
-9.2273e-06
-9.2273e-06
-9.2273e-06
-9.2273e-06
-9.2273e-06
-9.2273e-06
-9.2273e-06
-8.04935e-06
-1.34953e-14
-8.04935e-06
1.06317e-14
-8.04935e-06
2.08804e-14
-8.04935e-06
-2.07319e-14
-8.04935e-06
-1.03823e-14
-8.04935e-06
8.08535e-15
-8.04935e-06
7.52582e-15
-8.04935e-06
-1.98686e-15
-8.04935e-06
-1.37804e-14
-8.04935e-06
1.53648e-14
-8.04935e-06
-2.06698e-15
1.25788e-14
-8.04935e-06
-8.442e-06
-6.68788e-15
-8.442e-06
-6.07098e-15
-8.442e-06
3.15607e-14
-8.442e-06
-3.42681e-14
-8.442e-06
2.97231e-14
-8.442e-06
-1.15721e-14
-8.442e-06
-2.04039e-14
-8.442e-06
3.71602e-14
-8.442e-06
-2.11955e-14
-8.442e-06
-3.33455e-15
-8.442e-06
1.36445e-14
-9.82712e-15
-8.442e-06
-8.83465e-06
7.96739e-16
-8.83465e-06
1.10051e-14
-8.83465e-06
7.30696e-16
-8.83465e-06
-7.00452e-15
-8.83465e-06
-7.19181e-15
-8.83465e-06
-1.05699e-15
-8.83465e-06
1.12945e-14
-8.83465e-06
-1.78471e-14
-8.83465e-06
5.19715e-17
-8.83465e-06
1.826e-14
-8.83465e-06
-1.83569e-14
-7.16501e-15
-8.83465e-06
-9.2273e-06
-9.2273e-06
-9.2273e-06
-9.2273e-06
-9.2273e-06
-9.2273e-06
-9.2273e-06
-9.2273e-06
-9.2273e-06
-9.2273e-06
-9.2273e-06
-9.2273e-06
-8.04935e-06
-1.60217e-14
-8.04935e-06
1.88262e-15
-8.04935e-06
6.21339e-15
-8.04935e-06
-2.1846e-14
-8.04935e-06
6.6965e-15
-8.04935e-06
2.63526e-14
-8.04935e-06
-3.07186e-14
-8.04935e-06
-1.00842e-15
-8.04935e-06
1.84602e-15
-8.04935e-06
3.77974e-15
-8.04935e-06
9.33996e-15
8.60656e-16
-8.442e-06
6.22029e-15
-8.442e-06
-1.38377e-14
-8.442e-06
2.59401e-14
-8.442e-06
-3.34042e-14
-8.442e-06
3.13227e-14
-8.442e-06
-3.5999e-15
-8.442e-06
-1.00228e-14
-8.442e-06
-6.11671e-15
-8.442e-06
-9.95004e-15
-8.442e-06
2.62763e-14
-8.442e-06
-5.91296e-15
-5.64446e-15
-8.83465e-06
6.73553e-15
-8.83465e-06
-7.17718e-15
-8.83465e-06
2.7364e-14
-8.83465e-06
-2.58491e-14
-8.83465e-06
9.783e-15
-8.83465e-06
1.19864e-14
-8.83465e-06
-2.15194e-14
-8.83465e-06
3.18713e-14
-8.83465e-06
-3.7937e-15
-8.83465e-06
-1.33954e-14
-8.83465e-06
1.29858e-14
-1.25083e-14
-9.2273e-06
-9.2273e-06
-9.2273e-06
-9.2273e-06
-9.2273e-06
-9.2273e-06
-9.2273e-06
-9.2273e-06
-9.2273e-06
-9.2273e-06
-9.2273e-06
)
;

boundaryField
{
    rotor
    {
        type            calculated;
        value           nonuniform List<scalar> 
96
(
1.98092e-16
-2.13524e-15
8.09952e-15
-7.80554e-15
7.11389e-16
-3.33273e-15
8.45456e-15
-7.64896e-15
6.49275e-15
-5.43401e-15
8.30975e-15
-8.16457e-15
8.31394e-15
-9.39671e-15
6.51377e-15
-3.87224e-15
1.89095e-15
-4.29005e-15
7.66566e-15
-8.80253e-15
-8.37153e-16
8.22336e-15
-6.61858e-15
3.46462e-15
3.15651e-15
8.10498e-16
-1.54856e-15
-4.81623e-15
3.30004e-15
-9.07571e-16
-5.5943e-16
5.07163e-15
-1.42564e-15
-2.47114e-15
-6.47159e-15
3.60651e-15
2.35371e-15
3.52161e-15
-4.91721e-16
-1.53743e-15
-6.91074e-15
9.57341e-15
-1.51758e-15
-5.88868e-15
1.82696e-15
-1.26071e-15
8.7011e-15
-6.11491e-15
-3.33753e-06
-3.73019e-06
-4.12284e-06
-4.51549e-06
-4.90814e-06
-5.30079e-06
-5.69344e-06
-6.08609e-06
-6.47874e-06
-6.8714e-06
-7.26405e-06
-7.6567e-06
3.33753e-06
3.73019e-06
4.12284e-06
4.51549e-06
4.90814e-06
5.30079e-06
5.69344e-06
6.08609e-06
6.47874e-06
6.8714e-06
7.26405e-06
7.6567e-06
3.33753e-06
3.73019e-06
4.12284e-06
4.51549e-06
4.90814e-06
5.30079e-06
5.69344e-06
6.08609e-06
6.47874e-06
6.8714e-06
7.26405e-06
7.6567e-06
-3.33753e-06
-3.73019e-06
-4.12284e-06
-4.51549e-06
-4.90814e-06
-5.30079e-06
-5.69344e-06
-6.08609e-06
-6.47874e-06
-6.8714e-06
-7.26405e-06
-7.6567e-06
)
;
    }
    stator
    {
        type            calculated;
        value           nonuniform 0();
    }
    AMI1
    {
        type            cyclicAMI;
        value           nonuniform List<scalar> 
48
(
-2.0294e-15
1.89716e-14
-3.39628e-14
3.37601e-14
-9.56534e-15
3.59363e-15
-9.66951e-15
1.62348e-14
-1.32958e-14
-5.38273e-15
1.35321e-15
2.02872e-14
-2.16315e-14
1.47134e-15
2.62296e-15
9.16253e-15
-2.10055e-14
5.00308e-15
-7.41484e-15
7.32319e-15
1.06217e-14
2.5381e-15
-1.51722e-14
6.18566e-15
9.20526e-15
-7.53633e-15
1.1329e-14
-3.07548e-14
1.08483e-14
1.27265e-14
-2.40234e-15
-1.13331e-14
1.15282e-14
-2.14344e-15
-1.90772e-15
-5.91872e-15
5.47061e-15
-2.47365e-14
2.88092e-14
1.51393e-14
-1.25909e-14
-4.86502e-15
1.38346e-14
-2.07898e-14
1.94871e-14
-2.70044e-14
-3.8161e-15
1.74203e-14
)
;
    }
    AMI2
    {
        type            cyclicAMI;
        value           nonuniform 0();
    }
    front
    {
        type            empty;
        value           nonuniform 0();
    }
    back
    {
        type            empty;
        value           nonuniform 0();
    }
    procBoundary2to3
    {
        type            processor;
        value           nonuniform List<scalar> 8(-8.04935e-06 -8.442e-06 -8.83465e-06 -9.2273e-06 8.04935e-06 8.442e-06 8.83465e-06 9.2273e-06);
    }
}


// ************************************************************************* //
