/*--------------------------------*- C++ -*----------------------------------*\
| =========                 |                                                 |
| \\      /  F ield         | OpenFOAM: The Open Source CFD Toolbox           |
|  \\    /   O peration     | Version:  v1806                                 |
|   \\  /    A nd           | Web:      www.OpenFOAM.com                      |
|    \\/     M anipulation  |                                                 |
\*---------------------------------------------------------------------------*/
FoamFile
{
    version     2.0;
    format      ascii;
    class       surfaceScalarField;
    location    "5";
    object      meshPhi;
}
// * * * * * * * * * * * * * * * * * * * * * * * * * * * * * * * * * * * * * //

dimensions      [0 3 -1 0 0 0 0];
oriented        oriented;


internalField   nonuniform List<scalar> 
1460
(
-3.33709e-06
3.2867e-15
-3.33709e-06
-4.36156e-15
-3.33709e-06
-4.78383e-15
-3.33709e-06
2.54419e-15
-3.33709e-06
2.87747e-15
-3.33709e-06
-5.11866e-15
-3.33709e-06
6.44066e-16
-3.33709e-06
4.28877e-15
-3.33709e-06
2.17205e-15
-3.33709e-06
-1.83551e-15
-3.33709e-06
6.43855e-15
-9.54483e-15
-3.33709e-06
-3.72969e-06
7.44865e-15
-3.72969e-06
-1.22583e-14
-3.72969e-06
-8.14043e-16
-3.72969e-06
1.17798e-14
-3.72969e-06
-8.29184e-15
-3.72969e-06
-1.63254e-15
-3.72969e-06
-5.3824e-15
-3.72969e-06
9.19155e-15
-3.72969e-06
7.1936e-15
-3.72969e-06
-1.37694e-14
-3.72969e-06
5.4313e-15
1.85047e-15
-3.72969e-06
-4.12229e-06
-4.75444e-15
-4.12229e-06
1.26134e-14
-4.12229e-06
-1.30706e-14
-4.12229e-06
6.12025e-15
-4.12229e-06
-5.07316e-15
-4.12229e-06
2.66452e-15
-4.12229e-06
-3.46019e-15
-4.12229e-06
-5.11569e-16
-4.12229e-06
-4.46617e-15
-4.12229e-06
9.61573e-15
-4.12229e-06
3.36241e-15
-9.46542e-15
-4.12229e-06
-4.51489e-06
-5.07284e-16
-4.51489e-06
4.74227e-15
-4.51489e-06
-8.48956e-15
-4.51489e-06
-1.63788e-15
-4.51489e-06
-1.23656e-15
-4.51489e-06
9.82063e-15
-4.51489e-06
6.03362e-15
-4.51489e-06
-4.3925e-15
-4.51489e-06
-8.5583e-15
-4.51489e-06
1.13646e-14
-4.51489e-06
-9.24419e-16
-7.80411e-15
-4.51489e-06
-4.90749e-06
4.51974e-15
-4.90749e-06
-4.63186e-15
-4.90749e-06
-3.3453e-15
-4.90749e-06
9.86443e-15
-4.90749e-06
-1.69315e-14
-4.90749e-06
1.8129e-14
-4.90749e-06
-1.14766e-15
-4.90749e-06
-1.84903e-14
-4.90749e-06
1.46228e-14
-4.90749e-06
-2.93725e-15
-4.90749e-06
-3.24087e-15
7.73815e-15
-4.90749e-06
-5.30009e-06
1.03267e-14
-5.30009e-06
-1.5509e-14
-5.30009e-06
2.69925e-15
-5.30009e-06
1.92089e-15
-5.30009e-06
7.0299e-15
-5.30009e-06
-1.64253e-15
-5.30009e-06
-1.09761e-15
-5.30009e-06
-4.66792e-15
-5.30009e-06
-6.83313e-15
-5.30009e-06
2.75362e-15
-5.30009e-06
6.56938e-15
-6.30417e-15
-5.30009e-06
-5.69269e-06
-6.59201e-15
-5.69269e-06
-4.38351e-15
-5.69269e-06
9.64401e-15
-5.69269e-06
-7.26581e-15
-5.69269e-06
1.22946e-14
-5.69269e-06
-1.48804e-14
-5.69269e-06
2.21392e-14
-5.69269e-06
9.13775e-16
-5.69269e-06
-1.19289e-14
-5.69269e-06
4.04367e-15
-5.69269e-06
-1.42335e-14
1.19293e-14
-5.69269e-06
-6.08529e-06
-7.92297e-16
-6.08529e-06
8.21183e-15
-6.08529e-06
-6.93212e-15
-6.08529e-06
4.78366e-15
-6.08529e-06
-4.7752e-15
-6.08529e-06
-6.65393e-15
-6.08529e-06
1.41578e-14
-6.08529e-06
-1.5926e-14
-6.08529e-06
1.66843e-14
-6.08529e-06
-1.44546e-14
-6.08529e-06
1.75193e-14
-2.0571e-14
-6.08529e-06
-6.47788e-06
5.61267e-15
-6.47788e-06
-3.87559e-15
-6.47788e-06
2.86918e-16
-6.47788e-06
-6.17542e-15
-6.47788e-06
1.01494e-15
-6.47788e-06
2.72489e-15
-6.47788e-06
4.99421e-15
-6.47788e-06
1.59011e-15
-6.47788e-06
-9.6925e-15
-6.47788e-06
8.07864e-15
-6.47788e-06
-5.49418e-15
-6.81715e-16
-6.47788e-06
-6.87048e-06
1.29619e-14
-6.87048e-06
-1.76303e-14
-6.87048e-06
8.40617e-15
-6.87048e-06
-1.8459e-14
-6.87048e-06
1.66076e-14
-6.87048e-06
4.16983e-15
-6.87048e-06
-5.35151e-15
-6.87048e-06
-3.19602e-15
-6.87048e-06
8.68822e-15
-6.87048e-06
9.86588e-15
-6.87048e-06
-3.1344e-14
2.16987e-14
-6.87048e-06
-7.26308e-06
-8.68263e-15
-7.26308e-06
-3.11435e-15
-7.26308e-06
1.80078e-14
-7.26308e-06
-3.82831e-15
-7.26308e-06
-4.48574e-15
-7.26308e-06
1.53484e-14
-7.26308e-06
-3.68258e-15
-7.26308e-06
-1.07999e-14
-7.26308e-06
1.67651e-15
-7.26308e-06
4.70406e-15
-7.26308e-06
5.74803e-15
4.46404e-15
-7.26308e-06
-7.65568e-06
-1.34068e-15
-7.65568e-06
1.32412e-14
-7.65568e-06
-3.59097e-15
-7.65568e-06
-1.72746e-14
-7.65568e-06
2.44115e-15
-7.65568e-06
1.56601e-14
-7.65568e-06
-3.67877e-15
-7.65568e-06
-1.67901e-14
-7.65568e-06
-3.29349e-15
-7.65568e-06
1.34043e-14
-7.65568e-06
-3.19238e-15
-7.65568e-06
-1.48069e-14
-3.33709e-06
1.06841e-14
-3.33709e-06
-6.52314e-15
-3.33709e-06
4.52038e-15
-3.33709e-06
-1.0206e-14
-3.33709e-06
7.92456e-15
-3.33709e-06
-3.85163e-15
-3.33709e-06
1.69584e-15
-3.33709e-06
-6.00907e-15
-3.33709e-06
8.07275e-15
-3.33709e-06
1.89767e-15
-3.33709e-06
1.39217e-15
-6.20502e-15
-3.72969e-06
8.67881e-16
-3.72969e-06
-1.18018e-15
-3.72969e-06
-6.49442e-15
-3.72969e-06
1.32905e-15
-3.72969e-06
-3.26144e-15
-3.72969e-06
1.64615e-15
-3.72969e-06
-9.20283e-16
-3.72969e-06
6.09067e-15
-3.72969e-06
1.31784e-15
-3.72969e-06
-1.2797e-15
-3.72969e-06
-5.17685e-15
6.31433e-15
-4.12229e-06
1.06583e-15
-4.12229e-06
2.18762e-15
-4.12229e-06
7.33631e-15
-4.12229e-06
-2.23941e-15
-4.12229e-06
-5.39863e-15
-4.12229e-06
5.18143e-15
-4.12229e-06
-2.37699e-15
-4.12229e-06
4.38627e-15
-4.12229e-06
-6.96745e-15
-4.12229e-06
-4.90922e-15
-4.12229e-06
4.03425e-15
4.12508e-15
-4.51489e-06
2.12698e-15
-4.51489e-06
6.97156e-15
-4.51489e-06
-6.81961e-15
-4.51489e-06
2.29033e-15
-4.51489e-06
-9.67403e-16
-4.51489e-06
-3.03265e-15
-4.51489e-06
8.28036e-15
-4.51489e-06
-1.64291e-14
-4.51489e-06
1.90724e-15
-4.51489e-06
9.50811e-15
-4.51489e-06
-3.79254e-15
1.54622e-15
-4.90749e-06
1.46056e-15
-4.90749e-06
-1.7885e-15
-4.90749e-06
-7.24958e-15
-4.90749e-06
-2.59862e-15
-4.90749e-06
-3.81809e-15
-4.90749e-06
-2.19699e-15
-4.90749e-06
1.25119e-14
-4.90749e-06
-4.48167e-15
-4.90749e-06
1.21416e-14
-4.90749e-06
-1.41271e-14
-4.90749e-06
7.52204e-15
-1.52492e-15
-5.30009e-06
1.71437e-15
-5.30009e-06
-1.08735e-14
-5.30009e-06
1.17915e-14
-5.30009e-06
-3.34208e-15
-5.30009e-06
1.63052e-15
-5.30009e-06
7.8134e-15
-5.30009e-06
1.94393e-16
-5.30009e-06
-2.11718e-15
-5.30009e-06
2.36294e-15
-5.30009e-06
2.12712e-15
-5.30009e-06
-1.31472e-15
-5.23221e-15
-5.69269e-06
3.04214e-15
-5.69269e-06
-5.9189e-15
-5.69269e-06
-5.89482e-15
-5.69269e-06
1.09579e-14
-5.69269e-06
9.69592e-15
-5.69269e-06
-1.29034e-14
-5.69269e-06
-6.99139e-15
-5.69269e-06
1.47587e-14
-5.69269e-06
-8.33645e-15
-5.69269e-06
-2.49578e-15
-5.69269e-06
1.17038e-14
-9.29825e-15
-6.08529e-06
1.99736e-14
-6.08529e-06
-1.78102e-14
-6.08529e-06
1.47742e-14
-6.08529e-06
-2.89222e-15
-6.08529e-06
-5.63016e-15
-6.08529e-06
-1.24241e-14
-6.08529e-06
1.82711e-14
-6.08529e-06
-1.54589e-14
-6.08529e-06
5.08587e-15
-6.08529e-06
1.7156e-14
-6.08529e-06
-2.33488e-14
1.10516e-14
-6.47788e-06
2.51629e-15
-6.47788e-06
7.64386e-15
-6.47788e-06
-5.30141e-15
-6.47788e-06
-9.71582e-15
-6.47788e-06
1.43391e-14
-6.47788e-06
-8.39938e-16
-6.47788e-06
-1.34111e-14
-6.47788e-06
4.94516e-15
-6.47788e-06
-8.46553e-15
-6.47788e-06
1.19475e-14
-6.47788e-06
-9.59888e-15
7.55768e-15
-6.87048e-06
-1.71417e-14
-6.87048e-06
-3.41035e-15
-6.87048e-06
1.95851e-14
-6.87048e-06
-1.09862e-14
-6.87048e-06
2.25656e-14
-6.87048e-06
-2.47344e-14
-6.87048e-06
1.47448e-14
-6.87048e-06
1.09643e-15
-6.87048e-06
3.52383e-15
-6.87048e-06
-2.08036e-14
-6.87048e-06
5.57148e-15
3.57143e-15
-7.26308e-06
-1.65673e-14
-7.26308e-06
3.65984e-15
-7.26308e-06
-2.79637e-15
-7.26308e-06
6.81916e-15
-7.26308e-06
-6.06936e-15
-7.26308e-06
1.44668e-14
-7.26308e-06
-3.0713e-14
-7.26308e-06
5.8118e-15
-7.26308e-06
1.64573e-14
-7.26308e-06
1.57482e-15
-7.26308e-06
-6.89697e-15
-1.1022e-15
-7.65568e-06
2.56803e-14
-7.65568e-06
-1.05184e-14
-7.65568e-06
-2.73069e-15
-7.65568e-06
1.5067e-14
-7.65568e-06
1.8145e-15
-7.65568e-06
-1.12663e-14
-7.65568e-06
-1.68586e-16
-7.65568e-06
-6.61084e-15
-7.65568e-06
8.52293e-15
-7.65568e-06
-4.70882e-15
-7.65568e-06
1.02233e-14
-6.08336e-15
-3.33709e-06
-5.03258e-16
-3.33709e-06
6.06185e-15
-3.33709e-06
-8.58457e-15
-3.33709e-06
-9.02875e-16
-3.33709e-06
-3.88397e-16
-3.33709e-06
4.32401e-15
-3.33709e-06
-2.07037e-15
-3.33709e-06
-2.34631e-15
-3.33709e-06
-1.94636e-15
-3.33709e-06
2.6839e-15
-3.33709e-06
3.12026e-15
-2.84046e-15
-3.33709e-06
-3.72969e-06
2.92946e-15
-3.72969e-06
-1.39353e-15
-3.72969e-06
-5.23768e-15
-3.72969e-06
7.54941e-15
-3.72969e-06
2.05185e-15
-3.72969e-06
-5.89118e-15
-3.72969e-06
-8.77286e-15
-3.72969e-06
1.24495e-14
-3.72969e-06
-5.23439e-15
-3.72969e-06
3.711e-15
-3.72969e-06
1.09239e-15
-2.5071e-15
-3.72969e-06
-4.12229e-06
6.94693e-15
-4.12229e-06
-1.01362e-14
-4.12229e-06
-1.2561e-15
-4.12229e-06
5.7937e-16
-4.12229e-06
6.31927e-15
-4.12229e-06
-5.0874e-15
-4.12229e-06
5.95145e-15
-4.12229e-06
1.54238e-15
-4.12229e-06
-1.00967e-14
-4.12229e-06
3.96506e-15
-4.12229e-06
9.10557e-15
-2.04392e-15
-4.12229e-06
-4.51489e-06
-7.16281e-15
-4.51489e-06
-1.63879e-15
-4.51489e-06
3.54462e-15
-4.51489e-06
1.04074e-14
-4.51489e-06
-7.48308e-15
-4.51489e-06
3.78696e-15
-4.51489e-06
-6.00492e-16
-4.51489e-06
5.32713e-15
-4.51489e-06
-5.27834e-15
-4.51489e-06
5.2002e-15
-4.51489e-06
-5.34132e-15
-2.35101e-15
-4.51489e-06
-4.90749e-06
-3.22451e-15
-4.90749e-06
7.89754e-15
-4.90749e-06
-1.08095e-14
-4.90749e-06
2.67359e-15
-4.90749e-06
-1.20934e-15
-4.90749e-06
3.12381e-15
-4.90749e-06
-5.22073e-16
-4.90749e-06
-7.96072e-15
-4.90749e-06
6.83409e-15
-4.90749e-06
5.49518e-15
-4.90749e-06
-1.17944e-14
1.36457e-14
-4.90749e-06
-5.30009e-06
1.26776e-15
-5.30009e-06
-2.44468e-15
-5.30009e-06
-6.33587e-15
-5.30009e-06
1.47128e-14
-5.30009e-06
-1.49679e-15
-5.30009e-06
-2.32147e-15
-5.30009e-06
-8.83739e-15
-5.30009e-06
6.67165e-15
-5.30009e-06
3.05929e-15
-5.30009e-06
-6.4456e-15
-5.30009e-06
-2.64205e-15
5.77977e-17
-5.30009e-06
-5.69269e-06
6.43721e-15
-5.69269e-06
-1.46586e-14
-5.69269e-06
-3.37358e-16
-5.69269e-06
5.83924e-15
-5.69269e-06
5.59758e-15
-5.69269e-06
-2.85941e-15
-5.69269e-06
1.18063e-14
-5.69269e-06
-9.42281e-15
-5.69269e-06
-2.63884e-15
-5.69269e-06
7.27436e-15
-5.69269e-06
-6.3926e-15
1.03539e-15
-5.69269e-06
-6.08529e-06
1.24482e-14
-6.08529e-06
-3.40275e-15
-6.08529e-06
-1.8718e-14
-6.08529e-06
1.79618e-14
-6.08529e-06
-8.66713e-15
-6.08529e-06
-3.44701e-15
-6.08529e-06
1.63839e-15
-6.08529e-06
5.92149e-15
-6.08529e-06
4.83358e-15
-6.08529e-06
-6.37039e-15
-6.08529e-06
-1.42131e-14
3.26677e-15
-6.08529e-06
-6.47788e-06
-7.65731e-15
-6.47788e-06
9.72806e-15
-6.47788e-06
-1.29251e-14
-6.47788e-06
9.90964e-15
-6.47788e-06
-1.17016e-14
-6.47788e-06
1.47136e-14
-6.47788e-06
-8.3076e-15
-6.47788e-06
1.14547e-14
-6.47788e-06
-1.56986e-15
-6.47788e-06
9.30246e-15
-6.47788e-06
-1.91382e-14
4.57422e-15
-6.47788e-06
-6.87048e-06
-1.82813e-15
-6.87048e-06
-4.33172e-15
-6.87048e-06
-5.94403e-15
-6.87048e-06
2.0766e-14
-6.87048e-06
8.35907e-16
-6.87048e-06
-1.16344e-14
-6.87048e-06
-8.61846e-15
-6.87048e-06
7.24878e-15
-6.87048e-06
1.72886e-14
-6.87048e-06
-2.8472e-14
-6.87048e-06
1.50956e-14
-1.39764e-14
-6.87048e-06
-7.26308e-06
4.50358e-15
-7.26308e-06
1.01496e-14
-7.26308e-06
-2.80746e-14
-7.26308e-06
1.16655e-14
-7.26308e-06
7.6872e-15
-7.26308e-06
-1.33381e-15
-7.26308e-06
6.43269e-15
-7.26308e-06
-1.33384e-14
-7.26308e-06
-1.40543e-14
-7.26308e-06
1.27169e-14
-7.26308e-06
-1.10105e-14
3.00116e-14
-7.26308e-06
-7.65568e-06
1.15124e-14
-7.65568e-06
-4.95872e-15
-7.65568e-06
-2.13607e-14
-7.65568e-06
3.18234e-14
-7.65568e-06
-2.51787e-14
-7.65568e-06
8.19551e-15
-7.65568e-06
6.96886e-15
-7.65568e-06
-7.96622e-15
-7.65568e-06
-5.23357e-15
-7.65568e-06
-4.27593e-15
-7.65568e-06
2.78081e-15
-7.65568e-06
1.06803e-14
-3.33709e-06
6.76229e-15
-3.33709e-06
7.84748e-16
-3.33709e-06
1.1876e-15
-3.33709e-06
-6.47226e-15
-3.33709e-06
1.28948e-15
-3.33709e-06
5.95078e-15
-3.33709e-06
-1.37835e-15
-3.33709e-06
-9.27494e-15
-3.33709e-06
4.34996e-15
-3.33709e-06
-1.62733e-15
-3.33709e-06
-2.38016e-15
4.20078e-15
-3.72969e-06
-3.48968e-15
-3.72969e-06
4.04089e-15
-3.72969e-06
1.42598e-15
-3.72969e-06
-3.24697e-15
-3.72969e-06
-7.85547e-15
-3.72969e-06
1.27643e-14
-3.72969e-06
-4.81694e-15
-3.72969e-06
1.56378e-15
-3.72969e-06
-2.91256e-15
-3.72969e-06
-5.70332e-15
-3.72969e-06
5.79065e-15
1.69243e-15
-4.12229e-06
-4.55253e-15
-4.12229e-06
-3.45896e-15
-4.12229e-06
1.68562e-15
-4.12229e-06
7.67219e-16
-4.12229e-06
3.51105e-15
-4.12229e-06
-8.99837e-16
-4.12229e-06
-1.01289e-14
-4.12229e-06
1.53316e-14
-4.12229e-06
-1.20612e-14
-4.12229e-06
6.90523e-15
-4.12229e-06
-1.47804e-15
-1.41093e-15
-4.51489e-06
-4.84513e-15
-4.51489e-06
2.93082e-17
-4.51489e-06
1.96655e-15
-4.51489e-06
-3.85208e-15
-4.51489e-06
1.27325e-15
-4.51489e-06
7.23459e-15
-4.51489e-06
2.24669e-15
-4.51489e-06
-4.47299e-15
-4.51489e-06
-4.25009e-15
-4.51489e-06
2.85877e-15
-4.51489e-06
8.50992e-15
-5.10932e-15
-4.90749e-06
-6.09257e-15
-4.90749e-06
-9.30927e-15
-4.90749e-06
2.26878e-15
-4.90749e-06
9.5468e-16
-4.90749e-06
1.57409e-14
-4.90749e-06
-1.06008e-14
-4.90749e-06
-2.49334e-15
-4.90749e-06
1.12405e-14
-4.90749e-06
-1.50721e-14
-4.90749e-06
1.86721e-14
-4.90749e-06
-5.55363e-17
-9.40269e-15
-5.30009e-06
8.07633e-15
-5.30009e-06
-2.64262e-15
-5.30009e-06
-2.63553e-15
-5.30009e-06
-5.66417e-15
-5.30009e-06
2.97583e-15
-5.30009e-06
-1.83063e-15
-5.30009e-06
1.14139e-14
-5.30009e-06
-1.12129e-14
-5.30009e-06
1.57238e-14
-5.30009e-06
-6.62103e-15
-5.30009e-06
-1.06196e-14
7.79114e-15
-5.69269e-06
-7.85176e-15
-5.69269e-06
1.6262e-14
-5.69269e-06
2.58195e-15
-5.69269e-06
-1.97382e-14
-5.69269e-06
1.97594e-14
-5.69269e-06
-1.47344e-15
-5.69269e-06
-9.16151e-15
-5.69269e-06
1.09947e-15
-5.69269e-06
4.15895e-15
-5.69269e-06
-1.24772e-14
-5.69269e-06
1.27473e-15
3.885e-15
-6.08529e-06
8.35337e-15
-6.08529e-06
5.84945e-15
-6.08529e-06
2.92435e-15
-6.08529e-06
-1.47429e-14
-6.08529e-06
5.10418e-15
-6.08529e-06
9.38331e-15
-6.08529e-06
-1.7452e-14
-6.08529e-06
-3.63454e-15
-6.08529e-06
1.8264e-14
-6.08529e-06
5.37015e-15
-6.08529e-06
-1.00552e-14
-6.16161e-16
-6.47788e-06
7.77222e-15
-6.47788e-06
-6.00016e-15
-6.47788e-06
3.28799e-15
-6.47788e-06
-8.95878e-15
-6.47788e-06
-1.15476e-14
-6.47788e-06
2.16094e-14
-6.47788e-06
-1.42241e-15
-6.47788e-06
-7.77142e-15
-6.47788e-06
7.0987e-15
-6.47788e-06
-3.95193e-16
-6.47788e-06
3.65628e-15
-5.71233e-15
-6.87048e-06
8.4113e-15
-6.87048e-06
-6.49032e-16
-6.87048e-06
3.673e-15
-6.87048e-06
-2.3858e-15
-6.87048e-06
7.65838e-15
-6.87048e-06
-2.64927e-15
-6.87048e-06
-1.01457e-14
-6.87048e-06
2.17149e-14
-6.87048e-06
-1.22791e-14
-6.87048e-06
-7.42977e-15
-6.87048e-06
1.90549e-14
-1.14035e-14
-7.26308e-06
-1.34528e-14
-7.26308e-06
9.33439e-15
-7.26308e-06
-1.95925e-14
-7.26308e-06
4.97609e-15
-7.26308e-06
-1.08834e-14
-7.26308e-06
1.02126e-14
-7.26308e-06
1.80161e-14
-7.26308e-06
-1.98602e-14
-7.26308e-06
2.10488e-15
-7.26308e-06
1.4921e-14
-7.26308e-06
-2.32154e-14
1.20839e-14
-7.65568e-06
-1.39587e-14
-7.65568e-06
1.61636e-14
-7.65568e-06
-2.04109e-14
-7.65568e-06
-2.57712e-15
-7.65568e-06
2.63424e-14
-7.65568e-06
-1.76165e-14
-7.65568e-06
9.36472e-15
-7.65568e-06
4.23598e-15
-7.65568e-06
-1.16502e-14
-7.65568e-06
8.32594e-15
-7.65568e-06
-7.97663e-15
6.76974e-15
-8.04828e-06
6.78122e-15
-8.04828e-06
-1.87797e-15
-8.04828e-06
6.32566e-15
-8.04828e-06
-8.34082e-16
-8.04828e-06
-2.17702e-14
-8.04828e-06
-1.9256e-15
-8.04828e-06
1.41926e-14
-8.04828e-06
5.23743e-15
-8.04828e-06
-9.90888e-15
-8.04828e-06
-1.05583e-14
-8.04828e-06
1.78249e-14
-1.41844e-14
-8.04828e-06
-8.44088e-06
1.5683e-14
-8.44088e-06
-1.85001e-14
-8.44088e-06
1.45077e-14
-8.44088e-06
-4.47921e-15
-8.44088e-06
8.84582e-15
-8.44088e-06
-2.20571e-14
-8.44088e-06
1.8646e-15
-8.44088e-06
1.21685e-14
-8.44088e-06
1.35678e-16
-8.44088e-06
-9.4575e-15
-8.44088e-06
-1.25254e-14
1.25431e-14
-8.44088e-06
-8.83348e-06
-1.09134e-14
-8.83348e-06
-3.47156e-16
-8.83348e-06
3.04528e-14
-8.83348e-06
-2.48468e-14
-8.83348e-06
1.74853e-14
-8.83348e-06
-9.80812e-15
-8.83348e-06
4.32946e-15
-8.83348e-06
-9.48857e-15
-8.83348e-06
-5.67503e-15
-8.83348e-06
2.1821e-14
-8.83348e-06
5.25866e-15
-9.20912e-15
-8.83348e-06
-9.22608e-06
-9.22608e-06
-9.22608e-06
-9.22608e-06
-9.22608e-06
-9.22608e-06
-9.22608e-06
-9.22608e-06
-9.22608e-06
-9.22608e-06
-9.22608e-06
-9.22608e-06
-8.04828e-06
3.85729e-15
-8.04828e-06
2.1774e-14
-8.04828e-06
-1.38676e-15
-8.04828e-06
-1.9806e-14
-8.04828e-06
-2.56951e-15
-8.04828e-06
2.5489e-15
-8.04828e-06
2.09716e-14
-8.04828e-06
-1.1771e-14
-8.04828e-06
-1.01137e-14
-8.04828e-06
2.19234e-14
-8.04828e-06
-2.95807e-15
-1.17724e-14
-8.04828e-06
-8.44088e-06
5.80881e-15
-8.44088e-06
-1.72246e-14
-8.44088e-06
6.19014e-16
-8.44088e-06
7.12288e-15
-8.44088e-06
6.33173e-15
-8.44088e-06
1.86664e-14
-8.44088e-06
-2.05081e-14
-8.44088e-06
1.5324e-14
-8.44088e-06
-2.92178e-14
-8.44088e-06
1.59643e-14
-8.44088e-06
-1.83421e-14
1.67262e-14
-8.44088e-06
-8.83348e-06
4.58018e-15
-8.83348e-06
-5.87869e-15
-8.83348e-06
2.26859e-15
-8.83348e-06
-2.92608e-16
-8.83348e-06
2.83286e-15
-8.83348e-06
-1.09538e-14
-8.83348e-06
1.55446e-14
-8.83348e-06
-2.41573e-14
-8.83348e-06
2.02985e-14
-8.83348e-06
-2.60567e-14
-8.83348e-06
9.29986e-16
1.1825e-14
-8.83348e-06
-9.22608e-06
-9.22608e-06
-9.22608e-06
-9.22608e-06
-9.22608e-06
-9.22608e-06
-9.22608e-06
-9.22608e-06
-9.22608e-06
-9.22608e-06
-9.22608e-06
-9.22608e-06
-8.04828e-06
-1.34935e-14
-8.04828e-06
1.06303e-14
-8.04828e-06
2.08776e-14
-8.04828e-06
-2.07292e-14
-8.04828e-06
-1.0381e-14
-8.04828e-06
8.08437e-15
-8.04828e-06
7.52481e-15
-8.04828e-06
-1.98661e-15
-8.04828e-06
-1.37786e-14
-8.04828e-06
1.53628e-14
-8.04828e-06
-2.06675e-15
1.25772e-14
-8.04828e-06
-8.44088e-06
-6.68703e-15
-8.44088e-06
-6.07023e-15
-8.44088e-06
3.15565e-14
-8.44088e-06
-3.42635e-14
-8.44088e-06
2.97192e-14
-8.44088e-06
-1.15705e-14
-8.44088e-06
-2.04012e-14
-8.44088e-06
3.71553e-14
-8.44088e-06
-2.11926e-14
-8.44088e-06
-3.33403e-15
-8.44088e-06
1.36428e-14
-9.82576e-15
-8.44088e-06
-8.83348e-06
7.96651e-16
-8.83348e-06
1.10037e-14
-8.83348e-06
7.30648e-16
-8.83348e-06
-7.00359e-15
-8.83348e-06
-7.19087e-15
-8.83348e-06
-1.0569e-15
-8.83348e-06
1.1293e-14
-8.83348e-06
-1.78448e-14
-8.83348e-06
5.19379e-17
-8.83348e-06
1.82576e-14
-8.83348e-06
-1.83544e-14
-7.16406e-15
-8.83348e-06
-9.22608e-06
-9.22608e-06
-9.22608e-06
-9.22608e-06
-9.22608e-06
-9.22608e-06
-9.22608e-06
-9.22608e-06
-9.22608e-06
-9.22608e-06
-9.22608e-06
-9.22608e-06
-8.04828e-06
-1.60196e-14
-8.04828e-06
1.88233e-15
-8.04828e-06
6.21255e-15
-8.04828e-06
-2.18431e-14
-8.04828e-06
6.69559e-15
-8.04828e-06
2.63491e-14
-8.04828e-06
-3.07146e-14
-8.04828e-06
-1.00822e-15
-8.04828e-06
1.84577e-15
-8.04828e-06
3.77926e-15
-8.04828e-06
9.33864e-15
8.60511e-16
-8.44088e-06
6.21949e-15
-8.44088e-06
-1.38358e-14
-8.44088e-06
2.59367e-14
-8.44088e-06
-3.33997e-14
-8.44088e-06
3.13186e-14
-8.44088e-06
-3.59935e-15
-8.44088e-06
-1.00215e-14
-8.44088e-06
-6.11585e-15
-8.44088e-06
-9.94869e-15
-8.44088e-06
2.62729e-14
-8.44088e-06
-5.91216e-15
-5.64373e-15
-8.83348e-06
6.73465e-15
-8.83348e-06
-7.17628e-15
-8.83348e-06
2.73604e-14
-8.83348e-06
-2.58457e-14
-8.83348e-06
9.78167e-15
-8.83348e-06
1.19848e-14
-8.83348e-06
-2.15165e-14
-8.83348e-06
3.18671e-14
-8.83348e-06
-3.79314e-15
-8.83348e-06
-1.33937e-14
-8.83348e-06
1.2984e-14
-1.25067e-14
-9.22608e-06
-9.22608e-06
-9.22608e-06
-9.22608e-06
-9.22608e-06
-9.22608e-06
-9.22608e-06
-9.22608e-06
-9.22608e-06
-9.22608e-06
-9.22608e-06
)
;

boundaryField
{
    rotor
    {
        type            calculated;
        value           nonuniform List<scalar> 
96
(
1.98074e-16
-2.13495e-15
8.09845e-15
-7.80451e-15
7.11298e-16
-3.33229e-15
8.45343e-15
-7.64796e-15
6.49189e-15
-5.43329e-15
8.30865e-15
-8.16349e-15
8.31284e-15
-9.39547e-15
6.5129e-15
-3.87173e-15
1.89069e-15
-4.28948e-15
7.66464e-15
-8.80137e-15
-8.37048e-16
8.22227e-15
-6.61769e-15
3.46416e-15
3.15609e-15
8.10395e-16
-1.54835e-15
-4.8156e-15
3.29959e-15
-9.07449e-16
-5.59362e-16
5.07095e-15
-1.42546e-15
-2.47082e-15
-6.47073e-15
3.60604e-15
2.35341e-15
3.52115e-15
-4.91658e-16
-1.53722e-15
-6.90983e-15
9.57215e-15
-1.51738e-15
-5.8879e-15
1.8267e-15
-1.26055e-15
8.69995e-15
-6.11409e-15
-3.33709e-06
-3.72969e-06
-4.12229e-06
-4.51489e-06
-4.90749e-06
-5.30009e-06
-5.69269e-06
-6.08529e-06
-6.47788e-06
-6.87048e-06
-7.26308e-06
-7.65568e-06
3.33709e-06
3.72969e-06
4.12229e-06
4.51489e-06
4.90749e-06
5.30009e-06
5.69269e-06
6.08529e-06
6.47788e-06
6.87048e-06
7.26308e-06
7.65568e-06
3.33709e-06
3.72969e-06
4.12229e-06
4.51489e-06
4.90749e-06
5.30009e-06
5.69269e-06
6.08529e-06
6.47788e-06
6.87048e-06
7.26308e-06
7.65568e-06
-3.33709e-06
-3.72969e-06
-4.12229e-06
-4.51489e-06
-4.90749e-06
-5.30009e-06
-5.69269e-06
-6.08529e-06
-6.47788e-06
-6.87048e-06
-7.26308e-06
-7.65568e-06
)
;
    }
    stator
    {
        type            calculated;
        value           nonuniform 0();
    }
    AMI1
    {
        type            cyclicAMI;
        value           nonuniform List<scalar> 
48
(
-2.02913e-15
1.89691e-14
-3.39583e-14
3.37556e-14
-9.56404e-15
3.59311e-15
-9.66824e-15
1.62327e-14
-1.32941e-14
-5.38198e-15
1.353e-15
2.02845e-14
-2.16287e-14
1.47119e-15
2.62264e-15
9.16133e-15
-2.10027e-14
5.00244e-15
-7.4139e-15
7.32224e-15
1.06204e-14
2.53776e-15
-1.51702e-14
6.18486e-15
9.20408e-15
-7.53532e-15
1.13275e-14
-3.07507e-14
1.08469e-14
1.27249e-14
-2.40197e-15
-1.13316e-14
1.15267e-14
-2.14317e-15
-1.90744e-15
-5.91795e-15
5.46994e-15
-2.47332e-14
2.88054e-14
1.51373e-14
-1.25891e-14
-4.86435e-15
1.38326e-14
-2.0787e-14
1.94846e-14
-2.70008e-14
-3.81559e-15
1.74181e-14
)
;
    }
    AMI2
    {
        type            cyclicAMI;
        value           nonuniform 0();
    }
    front
    {
        type            empty;
        value           nonuniform 0();
    }
    back
    {
        type            empty;
        value           nonuniform 0();
    }
    procBoundary2to3
    {
        type            processor;
        value           nonuniform List<scalar> 8(-8.04828e-06 -8.44088e-06 -8.83348e-06 -9.22608e-06 8.04828e-06 8.44088e-06 8.83348e-06 9.22608e-06);
    }
}


// ************************************************************************* //
