/*--------------------------------*- C++ -*----------------------------------*\
| =========                 |                                                 |
| \\      /  F ield         | OpenFOAM: The Open Source CFD Toolbox           |
|  \\    /   O peration     | Version:  v1806                                 |
|   \\  /    A nd           | Web:      www.OpenFOAM.com                      |
|    \\/     M anipulation  |                                                 |
\*---------------------------------------------------------------------------*/
FoamFile
{
    version     2.0;
    format      ascii;
    class       volScalarField;
    location    "3";
    object      p;
}
// * * * * * * * * * * * * * * * * * * * * * * * * * * * * * * * * * * * * * //

dimensions      [0 2 -2 0 0 0 0];


internalField   nonuniform List<scalar> 
768
(
-0.0459583
-0.0460075
-0.0460055
-0.0459492
-0.0458278
-0.0456914
-0.0455657
-0.0454548
-0.0453609
-0.0452696
-0.0451562
-0.0450098
-0.0428668
-0.0429152
-0.0429929
-0.0430617
-0.0431125
-0.0431468
-0.0431683
-0.0431893
-0.0432182
-0.0432377
-0.0431802
-0.0429234
-0.0410931
-0.0411651
-0.0412915
-0.0414208
-0.0415134
-0.0415615
-0.0415653
-0.0415283
-0.0414599
-0.041333
-0.0410586
-0.0405522
-0.038605
-0.0387161
-0.0389424
-0.0391349
-0.0392523
-0.0392869
-0.0392339
-0.0390866
-0.0388341
-0.0384548
-0.0379018
-0.0371261
-0.0360423
-0.0361978
-0.0364598
-0.036659
-0.0367529
-0.0367301
-0.0365748
-0.0362626
-0.0357597
-0.0350536
-0.034129
-0.0330531
-0.0332636
-0.0334171
-0.0336551
-0.0338062
-0.0338359
-0.0337262
-0.0334475
-0.0329489
-0.0321915
-0.031178
-0.0299633
-0.0287197
-0.0302997
-0.0303695
-0.030494
-0.0305299
-0.0304487
-0.0302235
-0.0298212
-0.0291726
-0.0282044
-0.0269712
-0.0255911
-0.024309
-0.0271628
-0.0270523
-0.0269696
-0.0268114
-0.0265978
-0.0262039
-0.0256609
-0.0248851
-0.0238629
-0.0225586
-0.0211628
-0.0199488
-0.0238781
-0.0235117
-0.0231821
-0.0228103
-0.0224037
-0.0217959
-0.021078
-0.0202125
-0.0191765
-0.0180448
-0.016806
-0.015772
-0.020478
-0.0198176
-0.0192915
-0.0187758
-0.0181502
-0.017413
-0.0164908
-0.0154717
-0.0144431
-0.0134524
-0.0126126
-0.0118868
-0.0169107
-0.0160269
-0.0155575
-0.0151293
-0.01449
-0.0136559
-0.0125464
-0.01132
-0.0101621
-0.00922255
-0.00857465
-0.00829076
-0.0133069
-0.0125532
-0.0123916
-0.0122173
-0.0117048
-0.0108254
-0.00962592
-0.00826412
-0.00694933
-0.00589045
-0.00523854
-0.00503432
-0.0448363
-0.0446605
-0.0445074
-0.0443928
-0.0443368
-0.0443713
-0.0445385
-0.0448516
-0.0452198
-0.0454178
-0.0453514
-0.0450702
-0.0424497
-0.0418765
-0.0413428
-0.0409466
-0.04075
-0.0408084
-0.0412211
-0.0419283
-0.0426707
-0.0431301
-0.0431103
-0.0427146
-0.0398041
-0.0389618
-0.038234
-0.0377541
-0.0375904
-0.037789
-0.038266
-0.0390887
-0.0401157
-0.0409534
-0.0411195
-0.0407796
-0.0361865
-0.0352664
-0.034535
-0.0340759
-0.03392
-0.03407
-0.0345666
-0.0354028
-0.0365725
-0.0378382
-0.0385797
-0.0385374
-0.0320056
-0.0311703
-0.0306119
-0.0303016
-0.0302048
-0.0303336
-0.0307416
-0.0314928
-0.0326314
-0.0341186
-0.0354932
-0.0359475
-0.0276878
-0.0270044
-0.026621
-0.0264285
-0.0263798
-0.0264983
-0.0268489
-0.0275023
-0.028519
-0.0299254
-0.0316761
-0.0329324
-0.023379
-0.0228807
-0.0226783
-0.0226069
-0.0226164
-0.0227465
-0.0230607
-0.0236325
-0.0245122
-0.0256845
-0.0273579
-0.0294482
-0.0191728
-0.0188763
-0.0188682
-0.0189373
-0.0190183
-0.0191622
-0.0194516
-0.0199648
-0.0207441
-0.0217568
-0.023176
-0.0255644
-0.0151881
-0.0150845
-0.0152591
-0.0154764
-0.0156492
-0.0158265
-0.0161032
-0.0165628
-0.0172435
-0.0181213
-0.0192853
-0.0213585
-0.0115344
-0.0116037
-0.0119303
-0.0122902
-0.0125731
-0.0128079
-0.0130888
-0.0135007
-0.0140637
-0.0147266
-0.0154479
-0.0167903
-0.00824181
-0.00849416
-0.00894823
-0.00943105
-0.00982837
-0.0101431
-0.0104574
-0.0108458
-0.0112833
-0.0115498
-0.011731
-0.0117997
-0.00524247
-0.00568578
-0.00627699
-0.00687893
-0.00739452
-0.00781771
-0.0082165
-0.00865276
-0.00907024
-0.00915634
-0.00847963
-0.00682091
-0.0460812
-0.0459945
-0.0458917
-0.0457937
-0.0456907
-0.0455797
-0.0454613
-0.0453532
-0.0452618
-0.0451734
-0.0450502
-0.0448921
-0.0428985
-0.0429111
-0.042979
-0.043035
-0.0430696
-0.0430894
-0.0431104
-0.043137
-0.0431718
-0.0431853
-0.0431044
-0.0428058
-0.0411369
-0.0411911
-0.0412974
-0.0414018
-0.0414721
-0.0415035
-0.0415006
-0.0414688
-0.0413977
-0.0412602
-0.0409571
-0.0404011
-0.0385892
-0.0386986
-0.0389155
-0.0390897
-0.0391865
-0.0392022
-0.0391342
-0.0389732
-0.0387166
-0.0383241
-0.03774
-0.03692
-0.03602
-0.0361696
-0.0364139
-0.0365907
-0.0366608
-0.0366142
-0.0364352
-0.0360985
-0.0355757
-0.034842
-0.0338847
-0.0327874
-0.0332291
-0.0333733
-0.0335924
-0.0337215
-0.0337263
-0.0335889
-0.0332779
-0.0327417
-0.0319495
-0.0309013
-0.0296637
-0.0284242
-0.0302581
-0.0303167
-0.0304228
-0.0304414
-0.0303357
-0.0300814
-0.0296407
-0.0289376
-0.0279325
-0.0266671
-0.0252779
-0.024019
-0.0271141
-0.0269941
-0.0268966
-0.0267172
-0.0264901
-0.026071
-0.0254981
-0.0246897
-0.0236011
-0.0222721
-0.0208772
-0.0196956
-0.0238203
-0.0234452
-0.0231014
-0.0227119
-0.0222815
-0.0216702
-0.0209374
-0.0200516
-0.018996
-0.0178118
-0.0165818
-0.0155802
-0.0204081
-0.0197373
-0.0191966
-0.0186701
-0.018045
-0.0172944
-0.0163684
-0.0153482
-0.0143208
-0.0133377
-0.012471
-0.011771
-0.0168257
-0.0159291
-0.0154439
-0.0150091
-0.0143661
-0.013538
-0.0124383
-0.0112286
-0.0100931
-0.00917764
-0.00855031
-0.00825706
-0.0132098
-0.0124366
-0.0122589
-0.0120876
-0.0115779
-0.0107112
-0.00953386
-0.00820413
-0.00692744
-0.00590446
-0.00527453
-0.00506771
-0.0447075
-0.0445235
-0.0443634
-0.044241
-0.0441769
-0.0442076
-0.0443786
-0.0447054
-0.0450977
-0.0452991
-0.0452313
-0.0449467
-0.0422931
-0.0416968
-0.0411527
-0.040751
-0.0405531
-0.0406187
-0.0410404
-0.0417681
-0.0425251
-0.0430068
-0.0429927
-0.0425943
-0.0396041
-0.0387373
-0.0380099
-0.0375421
-0.0373876
-0.0375802
-0.0380757
-0.0389143
-0.039956
-0.0408097
-0.0409895
-0.040653
-0.0359492
-0.0350244
-0.0343062
-0.0338638
-0.033722
-0.0338872
-0.0343855
-0.0352283
-0.0364077
-0.0376877
-0.0384447
-0.0384091
-0.0317432
-0.0309272
-0.0303872
-0.0300881
-0.0299989
-0.0301366
-0.0305519
-0.0313114
-0.0324598
-0.0339584
-0.0353495
-0.0358155
-0.0274216
-0.0267692
-0.026402
-0.0262152
-0.0261711
-0.0262964
-0.0266546
-0.0273171
-0.0283432
-0.0297549
-0.0315137
-0.0327898
-0.023132
-0.022667
-0.0224747
-0.022402
-0.0224114
-0.0225459
-0.0228676
-0.0234484
-0.0243376
-0.0255124
-0.0271824
-0.0292945
-0.0189657
-0.0186983
-0.0186912
-0.0187494
-0.0188239
-0.0189687
-0.0192638
-0.0197849
-0.0205737
-0.0215916
-0.0230072
-0.0254092
-0.0150351
-0.0149512
-0.0151173
-0.0153146
-0.0154738
-0.0156475
-0.0159265
-0.0163917
-0.0170796
-0.0179639
-0.0191287
-0.0212162
-0.0114419
-0.0115181
-0.011828
-0.0121605
-0.0124229
-0.0126485
-0.012928
-0.0133424
-0.0139102
-0.014578
-0.0153024
-0.0166646
-0.00821028
-0.0084549
-0.00888471
-0.00933432
-0.00970497
-0.0100053
-0.0103147
-0.0107033
-0.011144
-0.0114136
-0.011603
-0.0116867
-0.0052625
-0.00568678
-0.00624754
-0.00681073
-0.00729544
-0.00770065
-0.00809184
-0.00852721
-0.00894877
-0.0090419
-0.00838228
-0.00674329
-0.00916853
-0.00987389
-0.01039
-0.0103635
-0.00981992
-0.00891229
-0.00770201
-0.00631323
-0.00493554
-0.00377086
-0.00298268
-0.00264155
-0.00841907
-0.00943127
-0.00949444
-0.0091683
-0.00852445
-0.00758783
-0.00639338
-0.00503836
-0.00369247
-0.00254865
-0.00173906
-0.00127076
-0.00791509
-0.00838661
-0.00845506
-0.00816035
-0.00755753
-0.00666562
-0.00552833
-0.00423765
-0.00295098
-0.00187594
-0.00113282
-0.000612101
-0.00755438
-0.00783268
-0.00786198
-0.00755968
-0.00696236
-0.00610097
-0.00501941
-0.00379525
-0.00256506
-0.00158453
-0.0010091
-0.000438971
-0.00273244
-0.00319204
-0.00386181
-0.00457718
-0.0052228
-0.00579081
-0.00633875
-0.00691438
-0.0074628
-0.00777718
-0.00770692
-0.00758487
-0.00112422
-0.00136726
-0.00191708
-0.00264219
-0.00338779
-0.00411232
-0.00484614
-0.00561652
-0.00637258
-0.00696384
-0.00728504
-0.00744639
-0.000310399
-0.000417296
-0.000831013
-0.00144163
-0.00216148
-0.00296411
-0.00384112
-0.00477658
-0.00569797
-0.00646478
-0.00697591
-0.00728817
0.000131172
6.82916e-06
-0.000401386
-0.000943388
-0.00162656
-0.00244393
-0.00337636
-0.00438723
-0.00538561
-0.00623332
-0.00682673
-0.00717974
-0.00909159
-0.00971944
-0.010238
-0.010216
-0.00968443
-0.00879866
-0.0076238
-0.00628149
-0.00495453
-0.00383376
-0.00306835
-0.00271789
-0.0083159
-0.0092633
-0.00931865
-0.00899877
-0.00837498
-0.0074713
-0.00632363
-0.00502584
-0.00373992
-0.00264653
-0.00186188
-0.00137769
-0.00783154
-0.00825267
-0.00827401
-0.00797356
-0.00739859
-0.00654897
-0.00546491
-0.00423602
-0.00301316
-0.00199284
-0.00127808
-0.000740166
-0.00749222
-0.00770444
-0.00768494
-0.00738227
-0.00681665
-0.00600039
-0.0049711
-0.00380514
-0.00263405
-0.00170503
-0.00115047
-0.000570446
-0.00278128
-0.00321824
-0.00385569
-0.00452819
-0.00514142
-0.0056903
-0.00622953
-0.00680437
-0.00735926
-0.00768675
-0.00765003
-0.00757452
-0.00118761
-0.00140059
-0.00191341
-0.00259339
-0.00331053
-0.00401916
-0.00474624
-0.0055181
-0.00628468
-0.00689714
-0.00725923
-0.00747973
-0.0003891
-0.000454408
-0.000813646
-0.00137976
-0.00207844
-0.00287049
-0.00374482
-0.00468588
-0.00562281
-0.00641717
-0.00697143
-0.0073354
3.58362e-05
-2.17468e-05
-0.000336058
-0.000859078
-0.00153742
-0.00235254
-0.00328683
-0.00430727
-0.0053254
-0.00620391
-0.00683775
-0.0072306
)
;

boundaryField
{
    rotor
    {
        type            zeroGradient;
    }
    stator
    {
        type            zeroGradient;
    }
    AMI1
    {
        type            cyclicAMI;
        value           nonuniform List<scalar> 
48
(
-0.00741139
-0.00761231
-0.00759029
-0.00727389
-0.00670062
-0.00588652
-0.00486827
-0.00371529
-0.00254663
-0.00160463
-0.00105724
-0.0005114
6.58443e-05
3.4358e-06
-0.000359002
-0.000867903
-0.00153835
-0.00234924
-0.00327715
-0.00428023
-0.00526882
-0.00611371
-0.00671498
-0.00707413
-0.00735457
-0.00749694
-0.00743392
-0.00712017
-0.00657062
-0.00579478
-0.00482372
-0.00372468
-0.00261205
-0.00171794
-0.00118151
-0.000622084
-1.13167e-05
-3.45115e-06
-0.000291245
-0.000790733
-0.0014558
-0.0022641
-0.00319363
-0.00420622
-0.00521444
-0.00608909
-0.00672728
-0.00712057
)
;
    }
    AMI2
    {
        type            cyclicAMI;
        value           nonuniform 0();
    }
    front
    {
        type            empty;
    }
    back
    {
        type            empty;
    }
    procBoundary3to2
    {
        type            processor;
        value           nonuniform List<scalar> 8(-0.00751059 -0.00742141 -0.0072791 -0.00717956 -0.00913782 -0.00840869 -0.00792087 -0.00757004);
    }
}


// ************************************************************************* //
