/*--------------------------------*- C++ -*----------------------------------*\
| =========                 |                                                 |
| \\      /  F ield         | OpenFOAM: The Open Source CFD Toolbox           |
|  \\    /   O peration     | Version:  v1806                                 |
|   \\  /    A nd           | Web:      www.OpenFOAM.com                      |
|    \\/     M anipulation  |                                                 |
\*---------------------------------------------------------------------------*/
FoamFile
{
    version     2.0;
    format      ascii;
    class       surfaceVectorField;
    location    "3";
    object      Uf;
}
// * * * * * * * * * * * * * * * * * * * * * * * * * * * * * * * * * * * * * //

dimensions      [0 1 -1 0 0 0 0];


internalField   nonuniform List<vector> 
1460
(
(0.0168291 0.132467 -6.25058e-21)
(0.0043673 0.144361 6.01103e-20)
(0.0249816 0.128506 -2.06976e-20)
(0.00935225 0.140351 -1.33271e-19)
(0.0324644 0.12364 4.47085e-20)
(0.0173799 0.1373 1.14872e-19)
(0.0384306 0.118004 2.96305e-19)
(0.0243462 0.131869 -2.70466e-20)
(0.0440065 0.111807 -2.50563e-19)
(0.0315185 0.126799 1.09506e-19)
(0.0492167 0.10541 -2.54787e-19)
(0.0387717 0.121335 -4.42664e-19)
(0.0539298 0.0988765 3.27764e-19)
(0.0455155 0.115644 2.5295e-19)
(0.0582906 0.0921218 7.94318e-20)
(0.0517974 0.10991 1.43794e-19)
(0.0629032 0.0852486 0)
(0.0583809 0.10385 0)
(0.0683221 0.0784477 0)
(0.0656005 0.0973851 4.20027e-19)
(0.074491 0.0725621 0)
(0.0741572 0.0907926 -4.22189e-19)
(0.0849711 0.08483 -2.81336e-19)
(0.081338 0.0686336 -8.30319e-20)
(0.0018028 0.150628 -6.68919e-20)
(0.00672229 0.157863 7.07163e-20)
(0.00571025 0.148608 5.30079e-22)
(0.00775071 0.156077 -1.13677e-19)
(0.0129806 0.144869 4.1103e-20)
(0.014994 0.152149 5.24702e-20)
(0.0212168 0.140501 -2.19718e-19)
(0.0232918 0.147574 -1.33589e-20)
(0.0298804 0.135751 -7.60086e-20)
(0.0321816 0.142776 -1.50131e-19)
(0.0383064 0.130723 7.12105e-20)
(0.0411936 0.137741 -2.36685e-19)
(0.0462649 0.125633 6.70588e-20)
(0.0500734 0.132675 2.48546e-19)
(0.0540695 0.12048 6.70588e-20)
(0.0590448 0.127897 -5.45311e-20)
(0.06248 0.114753 4.27985e-19)
(0.0688744 0.123341 0)
(0.0732684 0.108166 2.83034e-22)
(0.0811625 0.117759 3.08741e-19)
(0.0878577 0.101065 -7.16856e-19)
(0.097092 0.110276 -1.83502e-19)
(0.11626 0.102026 -2.95193e-19)
(0.105495 0.0945168 -5.67386e-19)
(0.00875544 0.16258 2.5125e-20)
(0.00414433 0.172475 3.12888e-20)
(0.0134042 0.159629 -6.25182e-20)
(0.0060337 0.171183 2.95929e-20)
(0.0211382 0.155531 8.91591e-22)
(0.0137379 0.167511 -1.18172e-19)
(0.0302732 0.151059 6.79375e-20)
(0.0238591 0.163535 1.29015e-20)
(0.0399749 0.146282 -3.1446e-19)
(0.0347328 0.159244 -4.54688e-20)
(0.0499613 0.141304 -6.44954e-20)
(0.0459328 0.15447 -1.02814e-19)
(0.0603072 0.136354 1.23368e-19)
(0.0574686 0.149349 -1.83169e-19)
(0.0717984 0.131659 -1.29405e-19)
(0.0699932 0.143988 9.02264e-20)
(0.0854693 0.126701 -1.32339e-19)
(0.0840033 0.138865 -2.21356e-19)
(0.102563 0.120996 1.31509e-19)
(0.101674 0.132629 3.03755e-19)
(0.123677 0.113871 2.59385e-19)
(0.123627 0.124228 2.7002e-19)
(0.148763 0.114245 -1.94341e-19)
(0.147287 0.106158 -3.4417e-19)
(0.0033909 0.179809 3.59536e-20)
(0.00360661 0.189597 8.21666e-21)
(0.00843689 0.177779 -2.58679e-20)
(0.00572511 0.188607 5.20942e-20)
(0.0184263 0.174886 -1.07814e-19)
(0.0149987 0.185635 -5.36839e-20)
(0.030112 0.171342 -1.0445e-19)
(0.0271385 0.182731 -5.84101e-21)
(0.0423103 0.167122 1.72246e-19)
(0.0399549 0.179071 1.43039e-19)
(0.0548625 0.162231 -2.23439e-19)
(0.0531112 0.174376 3.70143e-20)
(0.0680622 0.156741 -2.21866e-19)
(0.0668205 0.168725 -5.45171e-19)
(0.0830357 0.150437 2.45242e-22)
(0.0818252 0.162013 2.28149e-19)
(0.101714 0.143017 2.1889e-19)
(0.0992729 0.154372 -4.17492e-19)
(0.124958 0.133836 4.43137e-19)
(0.12075 0.145102 4.62869e-19)
(0.151536 0.123303 -1.95692e-19)
(0.146368 0.133327 -2.61373e-19)
(0.173015 0.120374 -1.83446e-19)
(0.177427 0.112804 1.72164e-19)
(0.00477828 0.196101 2.44583e-20)
(0.00398409 0.206403 9.05127e-22)
(0.0107994 0.195077 2.64518e-20)
(0.00707058 0.206346 8.34524e-20)
(0.0224704 0.193485 5.2165e-20)
(0.0186249 0.20513 1.86938e-21)
(0.0358767 0.190776 2.48877e-19)
(0.032522 0.203779 5.09657e-20)
(0.0497984 0.186673 7.38672e-21)
(0.0466963 0.200845 2.01108e-19)
(0.064333 0.181109 -2.85242e-19)
(0.0611557 0.195969 -1.08605e-19)
(0.079995 0.174288 -9.36919e-20)
(0.0764473 0.189047 -8.85751e-21)
(0.0976734 0.166237 -1.92269e-19)
(0.0932496 0.179942 0)
(0.118742 0.156415 -1.79309e-19)
(0.112563 0.168981 -3.52486e-19)
(0.143671 0.14415 -2.4832e-19)
(0.13564 0.155981 6.14885e-19)
(0.170101 0.12993 -2.45052e-19)
(0.161457 0.14032 -5.41468e-19)
(0.185943 0.123694 4.02712e-19)
(0.193287 0.116168 1.51256e-19)
(0.00613886 0.213209 5.91731e-20)
(0.00598042 0.223352 -9.23379e-22)
(0.014501 0.214713 6.03942e-20)
(0.011638 0.225139 2.46377e-20)
(0.0282634 0.215301 0)
(0.0253952 0.226764 0)
(0.0428898 0.21396 0)
(0.0403615 0.227562 -6.81542e-20)
(0.0576003 0.210171 8.70048e-20)
(0.0549959 0.225756 4.31394e-21)
(0.0728659 0.203672 1.74364e-19)
(0.0696641 0.220774 8.80423e-20)
(0.0895168 0.194489 8.73596e-20)
(0.0851705 0.21222 8.84014e-20)
(0.108605 0.182983 -1.598e-19)
(0.102471 0.199709 2.55448e-19)
(0.130686 0.16912 4.51639e-19)
(0.121999 0.184083 -2.95445e-19)
(0.155068 0.152757 3.23302e-19)
(0.144486 0.166273 6.01455e-19)
(0.178834 0.134561 1.14482e-19)
(0.168126 0.146471 -2.97363e-19)
(0.188826 0.12623 3.8548e-19)
(0.197598 0.117448 1.47305e-19)
(0.0110343 0.231054 -3.79433e-20)
(0.0102325 0.239684 1.28343e-20)
(0.0221808 0.235738 -3.70471e-20)
(0.0197431 0.244852 -8.09291e-20)
(0.037317 0.238963 -6.89767e-20)
(0.0351756 0.249663 2.84797e-20)
(0.0522797 0.239398 -6.49444e-20)
(0.050345 0.252756 -1.82402e-20)
(0.0667538 0.236251 4.366e-21)
(0.0644199 0.252468 6.3403e-20)
(0.0815282 0.2289 0)
(0.0780235 0.247826 0)
(0.0977372 0.217252 2.58531e-19)
(0.0924368 0.238001 0)
(0.116263 0.201583 1.21437e-19)
(0.108671 0.222381 2.49874e-19)
(0.137215 0.182596 -1.48285e-19)
(0.126883 0.201722 -2.42525e-19)
(0.159257 0.161269 -3.02513e-20)
(0.147338 0.178146 8.05817e-20)
(0.179372 0.138897 -2.42563e-20)
(0.167799 0.153493 -2.75459e-19)
(0.184623 0.129491 -1.16665e-20)
(0.193958 0.118401 -1.0188e-19)
(0.019021 0.249692 -2.91362e-20)
(0.0172528 0.255078 7.62056e-21)
(0.0330196 0.257704 -1.56943e-20)
(0.0310093 0.264811 -4.44174e-20)
(0.0487136 0.263374 8.08838e-20)
(0.0469716 0.271879 2.91006e-20)
(0.0631118 0.265679 1.10985e-19)
(0.0613806 0.276155 6.83172e-21)
(0.0763045 0.263714 5.89017e-20)
(0.0738307 0.276761 1.63545e-20)
(0.0892667 0.256215 0)
(0.0849234 0.272776 1.54433e-19)
(0.103514 0.242771 -1.13205e-20)
(0.097005 0.262985 -8.7555e-20)
(0.120013 0.223285 -1.19813e-19)
(0.111173 0.246421 6.76885e-20)
(0.138719 0.198968 -1.21441e-20)
(0.127565 0.222633 -1.0797e-19)
(0.157699 0.171888 -1.74434e-19)
(0.145371 0.19374 9.56993e-20)
(0.17421 0.144765 -2.64311e-19)
(0.162695 0.163507 -1.29766e-19)
(0.176302 0.134954 -2.95596e-21)
(0.185545 0.120579 7.31009e-20)
(0.0298435 0.268403 -6.43601e-21)
(0.0267618 0.268985 2.01222e-20)
(0.0457583 0.278254 0)
(0.0433825 0.282733 7.22745e-21)
(0.060675 0.284527 -4.52885e-20)
(0.0578277 0.288442 3.21397e-20)
(0.0730715 0.286932 -8.85839e-20)
(0.0696585 0.290433 -5.26283e-21)
(0.0838186 0.285457 1.12444e-19)
(0.0792924 0.289142 -4.40446e-20)
(0.0942375 0.278551 6.83135e-20)
(0.0868588 0.284948 1.37561e-19)
(0.106011 0.265774 -9.1699e-21)
(0.0964275 0.276604 -1.63236e-19)
(0.119974 0.245984 7.99611e-20)
(0.10864 0.262759 1.3512e-19)
(0.135952 0.218932 0)
(0.12353 0.241417 3.56809e-20)
(0.152178 0.186937 1.37678e-19)
(0.139727 0.212051 8.39726e-20)
(0.165815 0.154356 1.32327e-19)
(0.154881 0.178088 2.16333e-19)
(0.166395 0.144643 3.78472e-20)
(0.17486 0.125453 -3.93021e-21)
(0.0407327 0.285127 3.31579e-20)
(0.0365657 0.278645 9.65375e-21)
(0.0565186 0.292188 3.97574e-20)
(0.0518603 0.291959 -1.00955e-20)
(0.0683839 0.293762 7.17577e-20)
(0.0612806 0.289898 -2.69492e-20)
(0.0770138 0.292323 3.92994e-20)
(0.0689281 0.284637 1.16975e-19)
(0.08398 0.288178 -1.49369e-20)
(0.0744222 0.278612 -2.62995e-20)
(0.0917533 0.281877 -8.34504e-20)
(0.0795123 0.272892 -7.296e-20)
(0.10181 0.272189 -1.36008e-20)
(0.0875139 0.266522 -6.91486e-20)
(0.114606 0.257265 9.0481e-20)
(0.0989502 0.25762 5.54217e-20)
(0.129248 0.234906 1.2084e-19)
(0.113466 0.243723 -5.60293e-20)
(0.143916 0.204435 1.62875e-19)
(0.129562 0.22217 2.7627e-21)
(0.156183 0.169236 1.19338e-19)
(0.144705 0.192489 4.8422e-21)
(0.156212 0.158473 -2.3805e-21)
(0.164103 0.135435 -3.6779e-20)
(0.0511676 0.29197 -3.25918e-20)
(0.0385512 0.281409 -7.2541e-21)
(0.0594396 0.2873 -7.38461e-20)
(0.0476227 0.278432 -6.05635e-21)
(0.0637829 0.279215 2.02873e-20)
(0.0514508 0.265772 -4.35151e-20)
(0.0677148 0.270584 5.11183e-20)
(0.0553791 0.253325 1.76435e-20)
(0.071678 0.262858 -8.05573e-20)
(0.0585552 0.243781 -6.20033e-20)
(0.0778027 0.256862 -5.40118e-20)
(0.0631645 0.237317 -3.77917e-20)
(0.0873663 0.250826 0)
(0.0708576 0.232685 0)
(0.10048 0.242687 -8.23698e-20)
(0.0822198 0.22794 0)
(0.116044 0.229937 -1.58404e-19)
(0.096874 0.221061 -8.3093e-20)
(0.131896 0.209966 -1.47331e-19)
(0.113559 0.209793 -7.67016e-20)
(0.14545 0.182001 -1.15741e-19)
(0.130137 0.191806 -8.11597e-20)
(0.143819 0.166657 -1.62402e-20)
(0.154519 0.149409 -1.01481e-21)
(0.0345199 0.277213 1.97408e-20)
(0.0148542 0.241405 -5.01068e-21)
(0.0416085 0.253529 2.40654e-20)
(0.0249339 0.230478 1.36931e-20)
(0.0443607 0.237616 -4.74733e-20)
(0.0313893 0.217305 2.63426e-20)
(0.0467886 0.226082 -9.54662e-20)
(0.0358307 0.206431 -1.90887e-20)
(0.050472 0.218273 -1.81014e-20)
(0.0397084 0.199046 -4.92286e-20)
(0.0566917 0.213363 1.68422e-20)
(0.044974 0.194394 1.69827e-20)
(0.0663106 0.209814 0)
(0.0527309 0.191286 -1.82175e-20)
(0.079431 0.205943 0)
(0.0635185 0.188331 3.27629e-20)
(0.0954158 0.200136 0)
(0.0772362 0.184262 7.84326e-21)
(0.11281 0.190671 -9.31839e-21)
(0.0932001 0.178124 -8.86845e-21)
(0.129261 0.175535 1.64361e-20)
(0.110024 0.168936 1.41837e-20)
(0.14243 0.154017 -4.02353e-20)
(0.125858 0.1553 3.27426e-20)
(0.08906 0.0659433 3.1951e-19)
(0.0973904 0.0810053 -3.728e-19)
(0.0982382 0.0626301 3.20791e-19)
(0.110957 0.0787095 6.83904e-19)
(0.108538 0.0571808 -6.56972e-19)
(0.124204 0.0765835 -2.15956e-19)
(0.117755 0.0501972 -2.35837e-19)
(0.135033 0.0738536 -4.37509e-19)
(0.123235 0.0436379 -3.76033e-21)
(0.14164 0.0704216 5.95126e-19)
(0.124237 0.0384181 -1.72927e-19)
(0.143541 0.0656875 -4.69943e-19)
(0.122055 0.0327343 3.33808e-19)
(0.141986 0.0595834 1.09523e-19)
(0.118374 0.0237591 2.08283e-19)
(0.138485 0.0519692 1.69695e-19)
(0.11745 0.0112778 1.25362e-19)
(0.134781 0.036833 4.24611e-20)
(0.120271 -0.00295564 -4.2237e-20)
(0.131713 0.0192337 1.58757e-19)
(0.127088 -0.012825 -1.36017e-19)
(0.131477 0.000806825 -1.80317e-19)
(0.133607 -0.00838728 -1.05567e-20)
(0.124638 0.0897683 -1.45562e-21)
(0.137224 0.0953307 -6.24787e-19)
(0.142772 0.0872453 1.43867e-19)
(0.157071 0.091137 4.96053e-19)
(0.156652 0.0868753 7.63497e-22)
(0.17236 0.0895191 -2.38241e-19)
(0.16447 0.0875853 3.911e-19)
(0.181394 0.0898203 -6.06708e-20)
(0.166738 0.0872181 1.31458e-19)
(0.184786 0.0907399 5.56379e-19)
(0.164044 0.0832751 -1.86632e-19)
(0.183682 0.0916858 -2.26562e-20)
(0.159094 0.0751477 -6.2877e-20)
(0.180696 0.0876132 8.74561e-20)
(0.153588 0.0614346 0)
(0.176034 0.0792169 -1.02398e-19)
(0.147978 0.0411147 7.49187e-20)
(0.169984 0.0619198 0)
(0.144889 0.0170719 1.93388e-20)
(0.162542 0.0358502 7.61716e-20)
(0.145927 -0.0019656 -5.50751e-20)
(0.154103 0.00485322 -5.60317e-20)
(0.148388 -0.0122989 3.56231e-23)
(0.169461 0.0997769 -1.19238e-19)
(0.173093 0.105332 1.50229e-20)
(0.186392 0.0960605 1.0921e-19)
(0.191982 0.0995777 4.76789e-20)
(0.196602 0.0950853 -3.08007e-19)
(0.203114 0.0976565 -1.0821e-19)
(0.201092 0.0959041 1.01136e-19)
(0.207644 0.0987337 -3.68629e-19)
(0.201506 0.0973994 4.08743e-19)
(0.208469 0.10145 5.52047e-19)
(0.200204 0.0983935 2.63501e-19)
(0.208165 0.10382 -2.29701e-19)
(0.19592 0.0947368 5.32189e-20)
(0.206713 0.105486 3.23904e-19)
(0.18964 0.082755 -1.04139e-19)
(0.204467 0.102016 -1.84685e-19)
(0.181051 0.0593012 0)
(0.200088 0.0889623 4.11657e-20)
(0.172059 0.0269459 0)
(0.192074 0.0610826 0)
(0.16559 -0.00095792 0)
(0.178377 0.020653 -2.54867e-20)
(0.163003 -0.0098812 -1.30756e-20)
(0.197889 0.104655 1.87607e-19)
(0.195517 0.109155 5.04856e-19)
(0.210263 0.100547 -1.74045e-19)
(0.209737 0.102118 -3.7112e-20)
(0.215335 0.100523 -1.66684e-19)
(0.215466 0.0997364 -1.40809e-19)
(0.216089 0.10327 8.50158e-20)
(0.215929 0.100598 -1.77714e-19)
(0.215691 0.107015 -9.22261e-20)
(0.215003 0.102879 4.00661e-19)
(0.215542 0.110046 -1.76117e-19)
(0.215258 0.105586 -2.79241e-19)
(0.215885 0.111132 8.7178e-20)
(0.217393 0.108693 1.6969e-19)
(0.214365 0.106196 -3.83814e-20)
(0.220234 0.110925 6.59748e-20)
(0.208478 0.0884743 4.18008e-20)
(0.221266 0.107131 -6.5827e-20)
(0.197077 0.0538856 -2.58799e-20)
(0.217344 0.0877317 0)
(0.184207 0.0125409 -3.91572e-20)
(0.204304 0.0457191 1.58665e-20)
(0.181565 -0.00287199 9.89107e-21)
(0.208842 0.105933 2.79727e-19)
(0.204001 0.109836 -1.03541e-19)
(0.215629 0.100757 -1.24891e-21)
(0.212746 0.101543 1.43139e-19)
(0.216204 0.0996744 -1.51629e-19)
(0.213773 0.0987703 -2.60164e-20)
(0.214753 0.100472 1.39043e-19)
(0.211596 0.0990061 -2.63873e-19)
(0.214636 0.101878 2.17472e-19)
(0.210376 0.0995414 1.49522e-19)
(0.217196 0.104354 6.98464e-20)
(0.212164 0.0996449 1.1983e-19)
(0.221968 0.108313 1.48934e-19)
(0.217198 0.101017 6.31263e-20)
(0.226954 0.111356 3.97127e-20)
(0.224659 0.105141 2.8452e-20)
(0.228151 0.105504 -1.09311e-19)
(0.232024 0.109824 -5.17116e-20)
(0.22093 0.0791782 4.27936e-20)
(0.235345 0.104559 -3.14614e-20)
(0.205519 0.0311513 6.65506e-20)
(0.229505 0.0725278 5.76551e-20)
(0.207504 0.0113676 4.56901e-21)
(0.208142 0.105097 -2.4572e-19)
(0.20236 0.109595 -3.37244e-19)
(0.210835 0.0990027 1.20158e-19)
(0.207156 0.0997003 9.31197e-21)
(0.209292 0.0974588 -1.35706e-19)
(0.205955 0.0962084 1.21591e-19)
(0.207734 0.0973508 -2.56277e-19)
(0.203669 0.0958723 -3.58801e-19)
(0.208673 0.0966274 5.07828e-20)
(0.203733 0.0952882 1.02526e-19)
(0.212835 0.095628 1.14731e-19)
(0.207032 0.0930668 -7.41e-20)
(0.220299 0.0970478 -6.02893e-20)
(0.213551 0.0906013 1.7085e-19)
(0.229956 0.102716 -6.41648e-20)
(0.223189 0.0918983 -1.25467e-19)
(0.238777 0.107629 2.7901e-20)
(0.234523 0.0991624 1.28415e-20)
(0.240295 0.0961094 -1.87008e-20)
(0.244146 0.106191 -5.29566e-20)
(0.228223 0.0518744 -4.71759e-21)
(0.248953 0.0924401 1.98053e-22)
(0.237744 0.032908 3.53181e-21)
(0.200988 0.103617 -8.2548e-20)
(0.194693 0.109755 -1.88654e-20)
(0.201825 0.0961777 9.42435e-21)
(0.197483 0.0974534 1.73041e-20)
(0.200385 0.0940017 -1.00669e-19)
(0.196097 0.0923555 6.98281e-21)
(0.200273 0.0932681 4.07191e-21)
(0.195005 0.0910519 -1.01494e-19)
(0.20298 0.0912817 -2.16416e-20)
(0.1967 0.0897276 2.83627e-20)
(0.208525 0.0877062 -1.63057e-20)
(0.201509 0.0863684 -1.42532e-19)
(0.216772 0.0849562 1.0742e-19)
(0.20922 0.0813648 1.08615e-19)
(0.227729 0.0876107 -4.82181e-20)
(0.219685 0.0785041 -3.89338e-20)
(0.240794 0.0968951 -6.91737e-20)
(0.232165 0.0826473 -1.03785e-21)
(0.251448 0.10063 -3.61416e-20)
(0.24426 0.0942169 4.77102e-20)
(0.248194 0.0712079 4.79083e-21)
(0.257938 0.0991506 -7.96704e-20)
(0.264789 0.0571977 1.81842e-20)
(0.190614 0.102733 8.22887e-20)
(0.184025 0.111386 7.26527e-20)
(0.191146 0.0928252 1.42385e-20)
(0.186032 0.0956691 1.09527e-21)
(0.190653 0.088974 7.71714e-21)
(0.18527 0.0878427 6.72866e-20)
(0.191936 0.0872791 -7.79911e-20)
(0.185426 0.0848376 5.53949e-20)
(0.196043 0.0845214 -9.18836e-20)
(0.188447 0.0826541 -1.914e-19)
(0.203049 0.0796621 -1.44666e-20)
(0.194717 0.0784937 -8.0843e-20)
(0.212462 0.0743957 -3.93719e-20)
(0.203998 0.0720694 1.45717e-19)
(0.223784 0.072951 8.6474e-21)
(0.215409 0.0665447 -9.35709e-20)
(0.23709 0.0801174 1.18006e-19)
(0.227997 0.067021 4.85202e-20)
(0.252246 0.09284 3.49633e-21)
(0.239726 0.0765068 7.07168e-20)
(0.260118 0.0835502 -7.06207e-20)
(0.256324 0.0916772 -5.36743e-20)
(0.281066 0.0753438 -9.66327e-21)
(0.178865 0.103463 -5.58303e-21)
(0.172687 0.116249 -7.85799e-20)
(0.179583 0.0898855 5.38893e-20)
(0.174413 0.0958874 -1.24672e-20)
(0.179965 0.0832753 1.15785e-19)
(0.17424 0.0840077 1.27646e-19)
(0.182318 0.0800294 -5.93581e-20)
(0.175264 0.0781876 9.62891e-20)
(0.18769 0.0764622 -1.79531e-19)
(0.179357 0.07453 -1.56144e-19)
(0.196222 0.0706179 8.18474e-20)
(0.187084 0.0695314 -6.67904e-20)
(0.207175 0.0637555 9.23677e-20)
(0.197927 0.0620276 1.16308e-19)
(0.219329 0.0600475 -5.47685e-20)
(0.210274 0.0548439 -2.18302e-20)
(0.232292 0.0638096 0)
(0.222932 0.0531349 0)
(0.246789 0.0769192 1.30106e-20)
(0.234424 0.0603018 -1.35805e-20)
(0.262299 0.0835759 1.28962e-20)
(0.250857 0.0759526 4.62153e-20)
(0.284118 0.0788185 9.10044e-21)
(0.167635 0.108085 -8.54151e-20)
(0.162573 0.126177 -3.58088e-20)
(0.168512 0.0893744 6.17643e-20)
(0.16455 0.100525 -5.89908e-21)
(0.16939 0.0785737 1.08075e-19)
(0.164796 0.0832716 5.89382e-21)
(0.172519 0.0725933 -1.01758e-21)
(0.166272 0.0731002 6.95304e-20)
(0.179093 0.0675641 -4.10558e-20)
(0.171032 0.0666409 -7.02715e-20)
(0.189031 0.0607817 -3.22946e-20)
(0.179715 0.0601464 2.71882e-20)
(0.20101 0.0527142 5.81118e-22)
(0.191334 0.0517255 -4.01487e-20)
(0.213593 0.0473388 3.30993e-20)
(0.203764 0.0433583 7.17707e-20)
(0.226605 0.0493024 -1.37151e-20)
(0.215973 0.0398512 -3.25836e-20)
(0.241525 0.0595426 2.13672e-20)
(0.22775 0.0447817 -2.35195e-20)
(0.260362 0.0711999 4.41124e-20)
(0.246135 0.0579405 3.10562e-20)
(0.27751 0.0659317 6.60093e-21)
(0.158801 0.118527 4.34289e-20)
(0.152723 0.137463 -2.29237e-20)
(0.160191 0.0942251 -6.32308e-20)
(0.156835 0.109636 0)
(0.161385 0.0777185 -3.42727e-20)
(0.158314 0.0874696 -9.26913e-20)
(0.16483 0.0672149 -3.87584e-22)
(0.160244 0.0719036 4.91842e-20)
(0.171845 0.0593147 -1.66238e-21)
(0.164991 0.0610647 -4.92149e-20)
(0.182085 0.051039 1.99147e-20)
(0.173306 0.0518297 -5.75303e-20)
(0.193782 0.0420137 3.06901e-20)
(0.184017 0.0420933 -2.30476e-20)
(0.205476 0.0351055 5.32949e-21)
(0.194915 0.0327714 5.04727e-20)
(0.217863 0.0344468 -4.26563e-20)
(0.205402 0.0273373 -3.30885e-21)
(0.234168 0.041276 -1.11053e-20)
(0.216609 0.0285785 -9.85358e-21)
(0.258427 0.0490969 -7.65958e-21)
(0.237166 0.0362645 -1.66767e-21)
(0.262531 0.0387479 -8.96522e-21)
(0.150585 0.128106 -6.51719e-20)
(0.138342 0.136771 -3.96561e-20)
(0.154556 0.102692 -2.91614e-20)
(0.146718 0.114692 2.22195e-20)
(0.156931 0.0816478 -9.01262e-21)
(0.151622 0.092704 6.33544e-21)
(0.160417 0.0658488 -5.06101e-23)
(0.155275 0.0737961 2.03168e-20)
(0.166586 0.0536853 -1.06098e-19)
(0.159972 0.058611 -1.20691e-20)
(0.175222 0.0428838 -1.01638e-19)
(0.166742 0.0458751 -5.23174e-20)
(0.184681 0.032644 -4.07765e-21)
(0.174841 0.0342193 -1.24412e-22)
(0.193692 0.0244623 4.16485e-20)
(0.182592 0.0239227 1.21251e-20)
(0.203405 0.0204794 2.96237e-20)
(0.189661 0.0167942 2.98708e-20)
(0.219221 0.0201596 0)
(0.197773 0.0130615 -4.67792e-21)
(0.24984 0.0159466 -2.9318e-21)
(0.212004 0.00982158 2.3453e-21)
(0.225818 -0.00669464 -4.4866e-22)
(0.131601 -0.0166125 -4.12702e-22)
(0.141625 -0.00278651 -1.53746e-21)
(0.127468 -0.0243307 4.22625e-20)
(0.139972 -0.00891172 0)
(0.122302 -0.0311407 -7.08566e-22)
(0.136062 -0.0163911 -3.23963e-20)
(0.116676 -0.0375668 -1.25277e-19)
(0.131294 -0.0243245 1.71998e-19)
(0.110799 -0.0435043 -1.07095e-21)
(0.126121 -0.0320051 -2.20513e-19)
(0.104722 -0.0488622 -1.01427e-21)
(0.120708 -0.0391592 -2.78088e-19)
(0.0983457 -0.0536148 -4.08165e-19)
(0.115224 -0.0456171 1.98724e-19)
(0.0916556 -0.0580288 2.30917e-19)
(0.109614 -0.0517946 -4.0688e-19)
(0.0848318 -0.0627643 6.33426e-19)
(0.103552 -0.0584175 4.19942e-19)
(0.0781539 -0.0683201 7.60278e-20)
(0.0970765 -0.065775 -3.52732e-19)
(0.0725814 -0.0745999 0)
(0.0905392 -0.0746537 -1.36935e-19)
(0.0848803 -0.0857802 7.01868e-19)
(0.0690262 -0.0815308 1.62333e-19)
(0.150238 0.000372243 -5.39667e-22)
(0.157444 -0.00455274 -8.32218e-21)
(0.148117 -0.00484306 -7.49824e-20)
(0.1564 -0.00731564 0)
(0.144633 -0.0131269 1.44874e-19)
(0.152403 -0.0149451 -1.07106e-19)
(0.140311 -0.0220548 7.71496e-20)
(0.147846 -0.0238264 2.88512e-19)
(0.135536 -0.0306949 -5.07189e-19)
(0.14301 -0.0329156 -3.34217e-19)
(0.130553 -0.0387946 -7.66209e-20)
(0.137974 -0.0417962 -3.67419e-19)
(0.125536 -0.0464898 2.14363e-19)
(0.133 -0.0504546 4.38231e-20)
(0.120373 -0.0542142 -2.20041e-19)
(0.128331 -0.0593591 1.75271e-19)
(0.114532 -0.0627588 -5.81189e-19)
(0.123778 -0.0693295 -1.49e-19)
(0.107912 -0.074031 -5.7642e-19)
(0.11791 -0.0821765 -1.87971e-19)
(0.100881 -0.0891914 5.76341e-19)
(0.110252 -0.0986515 -2.10947e-20)
(0.102145 -0.118387 3.70352e-19)
(0.0946008 -0.107358 7.10494e-19)
(0.163473 -0.0085014 -8.3375e-21)
(0.172943 -0.00341628 -2.18737e-20)
(0.160499 -0.013607 -2.96541e-20)
(0.171881 -0.005697 -8.19785e-20)
(0.156396 -0.0216438 3.30328e-20)
(0.168225 -0.013855 2.98941e-20)
(0.151796 -0.030988 -1.26547e-19)
(0.164246 -0.0243812 1.73516e-19)
(0.146914 -0.0407127 -1.85947e-19)
(0.159877 -0.0354399 -3.01926e-19)
(0.141957 -0.0505691 -2.49666e-19)
(0.155089 -0.0466329 4.45011e-19)
(0.137102 -0.0607952 5.26622e-22)
(0.150083 -0.0580914 -6.97187e-19)
(0.132487 -0.0724225 2.54243e-19)
(0.144865 -0.0707627 4.8009e-19)
(0.127468 -0.086559 2.58255e-19)
(0.139825 -0.0851158 0)
(0.121544 -0.104354 3.8857e-19)
(0.133338 -0.103487 5.82343e-19)
(0.114274 -0.126219 -2.40867e-19)
(0.124618 -0.1262 -7.67901e-20)
(0.114613 -0.151785 -3.73838e-19)
(0.106639 -0.150234 -4.84331e-19)
(0.180083 -0.0027705 -9.68596e-20)
(0.18986 -0.00323059 -1.47676e-21)
(0.178305 -0.00828982 -2.5001e-20)
(0.188933 -0.00573027 -6.02001e-20)
(0.175525 -0.0187409 1.70624e-19)
(0.186057 -0.0153082 1.08444e-19)
(0.171981 -0.0307073 3.78238e-22)
(0.183212 -0.0276859 2.09214e-19)
(0.167747 -0.0430093 3.34571e-19)
(0.179548 -0.0406317 -2.09108e-19)
(0.162911 -0.055578 -7.37186e-22)
(0.174898 -0.0538535 4.45931e-19)
(0.157547 -0.068872 -2.22096e-19)
(0.169377 -0.067632 -6.45293e-19)
(0.151305 -0.0842397 2.25409e-19)
(0.162792 -0.0829099 4.23052e-19)
(0.143759 -0.10365 3.25103e-19)
(0.155255 -0.100803 -1.88237e-19)
(0.134407 -0.127716 1.14981e-19)
(0.145742 -0.123092 4.15509e-19)
(0.123782 -0.154725 -2.10424e-19)
(0.133702 -0.149286 -3.77684e-19)
(0.120764 -0.175869 1.27005e-20)
(0.113395 -0.180347 0)
(0.196287 -0.00487679 3.77094e-20)
(0.206489 -0.00385681 1.37584e-20)
(0.195358 -0.0111535 7.52099e-20)
(0.206501 -0.00721805 4.95556e-21)
(0.193818 -0.0230232 1.47586e-19)
(0.205332 -0.0190112 5.07835e-20)
(0.191112 -0.0365658 2.01166e-22)
(0.20397 -0.0330514 9.86979e-20)
(0.18702 -0.0505942 -1.05027e-19)
(0.201016 -0.0473384 -9.8792e-20)
(0.181536 -0.0652501 -2.02212e-19)
(0.196171 -0.0619366 -2.55834e-19)
(0.174875 -0.0811221 1.65231e-21)
(0.189315 -0.077407 -3.25418e-20)
(0.166898 -0.0991954 6.35696e-21)
(0.180292 -0.0944639 2.07212e-19)
(0.157015 -0.120923 -1.01076e-19)
(0.169403 -0.114252 -1.97904e-19)
(0.144531 -0.146401 -7.79166e-20)
(0.156255 -0.137942 -2.0595e-19)
(0.130209 -0.172807 -1.51335e-19)
(0.140366 -0.163947 -1.55951e-19)
(0.123843 -0.187907 1.51178e-19)
(0.116639 -0.195222 -1.23756e-19)
(0.213285 -0.00618993 -1.85898e-20)
(0.223333 -0.0059454 1.1029e-20)
(0.214821 -0.0147987 -2.07029e-20)
(0.225128 -0.0118325 -2.09498e-20)
(0.215369 -0.0287008 0)
(0.226717 -0.0257227 6.49144e-20)
(0.213972 -0.0434355 0)
(0.227437 -0.0407828 0)
(0.210143 -0.0582838 -2.51875e-19)
(0.225557 -0.0555301 6.31578e-20)
(0.203647 -0.0737505 -8.68205e-20)
(0.220531 -0.0703705 -2.54879e-19)
(0.194508 -0.0906788 1.74351e-19)
(0.211931 -0.0860764 4.49093e-20)
(0.183073 -0.110151 1.61643e-21)
(0.199359 -0.103633 2.72155e-19)
(0.16919 -0.132657 -3.07533e-19)
(0.183749 -0.123505 -1.16818e-20)
(0.152669 -0.157205 -2.83009e-19)
(0.165929 -0.1463 -6.92277e-20)
(0.134437 -0.180567 1.51192e-19)
(0.146028 -0.169783 1.34125e-19)
(0.125995 -0.189719 2.39324e-19)
(0.117643 -0.198336 2.69388e-19)
(0.231025 -0.0111036 1.02451e-20)
(0.239588 -0.0101728 -1.02048e-20)
(0.235616 -0.0223698 6.56978e-20)
(0.244723 -0.0198382 -1.25523e-20)
(0.238741 -0.0375824 6.56978e-20)
(0.249427 -0.0353785 5.84271e-20)
(0.23906 -0.0526495 6.392e-20)
(0.252404 -0.0506154 1.06608e-19)
(0.235807 -0.067278 6.392e-20)
(0.252003 -0.0648113 1.37935e-21)
(0.228354 -0.0822638 -1.25403e-19)
(0.247241 -0.0785792 0)
(0.216651 -0.0987546 1.42822e-19)
(0.237212 -0.0931973 -1.28948e-20)
(0.200901 -0.117518 2.6113e-19)
(0.221414 -0.10956 2.5925e-19)
(0.181911 -0.138638 2.3435e-19)
(0.200595 -0.128001 -3.24021e-19)
(0.160551 -0.16056 3.57959e-19)
(0.177059 -0.148487 3.17212e-19)
(0.138276 -0.180089 2.21808e-19)
(0.152492 -0.168575 4.02929e-20)
(0.128814 -0.184598 3.24454e-19)
(0.118219 -0.193711 -9.4809e-20)
(0.249604 -0.0189793 -3.43888e-20)
(0.254965 -0.0171093 2.87658e-21)
(0.257495 -0.0330611 -2.05024e-20)
(0.264647 -0.0309886 1.24371e-20)
(0.263029 -0.0488252 9.99988e-20)
(0.271636 -0.047046 -5.7768e-20)
(0.26519 -0.0633165 4.48349e-20)
(0.275825 -0.0615342 1.60501e-20)
(0.263107 -0.076651 -6.33006e-20)
(0.276316 -0.0741505 5.06898e-20)
(0.255396 -0.0897803 1.14124e-19)
(0.272187 -0.0853298 -4.13843e-20)
(0.241694 -0.104232 1.02709e-19)
(0.262097 -0.097558 1.15314e-19)
(0.222024 -0.12093 -3.32997e-19)
(0.245168 -0.111837 5.66082e-20)
(0.197523 -0.139555 -2.345e-19)
(0.221088 -0.128193 -3.89182e-19)
(0.17051 -0.158214 -3.27908e-21)
(0.192062 -0.145927 -1.27219e-21)
(0.143632 -0.174098 1.44255e-19)
(0.16199 -0.16277 -1.45741e-19)
(0.133848 -0.175644 3.20752e-19)
(0.119977 -0.184628 1.51463e-19)
(0.268311 -0.0297137 4.92415e-20)
(0.268919 -0.0265383 1.337e-20)
(0.278096 -0.0457453 -2.42254e-20)
(0.28266 -0.0433175 3.32138e-20)
(0.284297 -0.0607682 -1.4234e-19)
(0.288361 -0.0578787 -3.20145e-20)
(0.286641 -0.0732655 2.35161e-20)
(0.290305 -0.069823 -9.3793e-20)
(0.285035 -0.0841083 7.4881e-20)
(0.288921 -0.0795819 7.47649e-20)
(0.277925 -0.0946285 -4.18205e-20)
(0.284587 -0.0871975 -1.31704e-20)
(0.264806 -0.10648 6.88602e-20)
(0.275995 -0.09682 -6.08028e-20)
(0.244586 -0.120489 1.67402e-21)
(0.261765 -0.109065 4.75892e-20)
(0.217223 -0.13639 -1.48685e-19)
(0.239972 -0.12389 -9.24127e-20)
(0.185089 -0.152158 -1.43929e-19)
(0.210332 -0.139816 -8.22986e-20)
(0.152799 -0.165186 3.4609e-20)
(0.176328 -0.154553 -1.07042e-19)
(0.143242 -0.165416 1.34971e-20)
(0.124454 -0.17359 4.17083e-20)
(0.285156 -0.0405807 -2.16062e-21)
(0.278734 -0.0363762 -1.98227e-20)
(0.292229 -0.0565523 2.55323e-20)
(0.292092 -0.0518407 -2.34345e-20)
(0.29377 -0.0685426 1.81069e-20)
(0.290032 -0.0613578 7.31576e-21)
(0.292254 -0.0772474 -4.23664e-20)
(0.284657 -0.069077 0)
(0.288015 -0.0842702 -1.31757e-20)
(0.278464 -0.074666 2.81129e-20)
(0.281555 -0.092081 -3.27491e-20)
(0.272598 -0.0797491 -3.90492e-20)
(0.271624 -0.102152 -7.76506e-20)
(0.26607 -0.0877698 -1.82678e-20)
(0.256331 -0.114887 -4.51839e-20)
(0.256954 -0.0991973 -1.53007e-21)
(0.233515 -0.129354 -2.89388e-20)
(0.242746 -0.113618 6.2426e-20)
(0.202762 -0.143688 -4.44349e-20)
(0.220855 -0.129483 5.00713e-20)
(0.167561 -0.155363 -1.25869e-19)
(0.191015 -0.144183 -4.48467e-20)
(0.157086 -0.155203 -1.8042e-20)
(0.134202 -0.162759 -1.21925e-19)
(0.292204 -0.0511333 -3.82855e-20)
(0.281648 -0.0385634 -1.29323e-20)
(0.28757 -0.0594808 -4.27862e-20)
(0.278633 -0.0476443 -3.03452e-20)
(0.279343 -0.0638673 -1.10615e-20)
(0.265913 -0.0514193 3.13166e-20)
(0.270512 -0.0678424 7.1535e-20)
(0.253253 -0.0553521 -1.84995e-20)
(0.26258 -0.0718265 1.57141e-21)
(0.243447 -0.0585767 1.76797e-20)
(0.256449 -0.0779716 -2.32177e-20)
(0.236785 -0.0632064 -4.10112e-20)
(0.250298 -0.0875379 6.47556e-20)
(0.23204 -0.0709308 4.45031e-20)
(0.242023 -0.100603 1.02339e-19)
(0.227226 -0.082304 -1.59978e-20)
(0.229074 -0.116007 1.32238e-19)
(0.22028 -0.0968942 9.50419e-20)
(0.208845 -0.131554 5.05397e-20)
(0.208911 -0.11339 -1.48853e-20)
(0.180762 -0.144688 6.65741e-20)
(0.190829 -0.129636 4.14627e-20)
(0.165662 -0.142921 9.05891e-20)
(0.148294 -0.153295 3.98493e-20)
(0.277457 -0.0345802 -4.69704e-21)
(0.241309 -0.0150437 8.3392e-22)
(0.253663 -0.0414702 4.0589e-20)
(0.230084 -0.0247959 2.02458e-20)
(0.237539 -0.0441513 2.19257e-20)
(0.216915 -0.0310935 1.89766e-20)
(0.225745 -0.0466049 -7.28852e-20)
(0.205889 -0.0354935 -1.8819e-20)
(0.217686 -0.050338 -2.49646e-20)
(0.198329 -0.039427 -2.85969e-20)
(0.212612 -0.0566141 2.91657e-20)
(0.193552 -0.0447869 6.13747e-21)
(0.20899 -0.0662816 -3.48689e-20)
(0.190391 -0.0526475 -1.80604e-20)
(0.205112 -0.0794064 -2.32391e-20)
(0.187436 -0.0635 -1.71362e-20)
(0.19934 -0.0953064 -4.86429e-20)
(0.18341 -0.0771958 -2.50517e-20)
(0.18991 -0.112486 -1.95578e-20)
(0.177351 -0.0930132 -3.33271e-20)
(0.174805 -0.128624 6.54679e-20)
(0.168259 -0.109585 1.9721e-20)
(0.153325 -0.14144 3.14696e-20)
(0.154716 -0.125113 9.70988e-22)
(0.0665512 -0.089426 -2.39985e-19)
(0.0814564 -0.0985228 1.73832e-19)
(0.0631458 -0.0989743 -5.5972e-19)
(0.0794028 -0.112395 -5.39287e-19)
(0.0573995 -0.109718 -4.9006e-19)
(0.0773123 -0.125818 -2.6646e-19)
(0.0502684 -0.119168 3.46272e-19)
(0.0745339 -0.136631 -8.96401e-20)
(0.0438816 -0.124536 2.48802e-19)
(0.0711294 -0.143019 6.90185e-19)
(0.0389208 -0.125252 -5.08498e-19)
(0.0664571 -0.144644 -3.14791e-19)
(0.0332925 -0.122716 -8.14924e-20)
(0.0604725 -0.142786 -1.37825e-20)
(0.0241991 -0.118636 4.15841e-20)
(0.0528969 -0.138976 0)
(0.011555 -0.117468 8.33539e-20)
(0.0374174 -0.135083 4.23574e-20)
(-0.0028433 -0.120202 4.17698e-20)
(0.0194665 -0.131809 -6.64293e-20)
(-0.0128246 -0.127032 0)
(0.000805779 -0.131435 1.08062e-19)
(-0.00848458 -0.133531 0)
(0.090192 -0.126928 -1.34077e-19)
(0.095817 -0.139726 -1.11654e-19)
(0.088011 -0.145182 -2.55609e-19)
(0.0919981 -0.159562 -3.06663e-20)
(0.0879272 -0.158802 1.3118e-19)
(0.0906528 -0.174463 -1.25637e-19)
(0.088801 -0.166142 2.53828e-19)
(0.0910925 -0.182979 1.64491e-19)
(0.0884511 -0.167931 1.22431e-19)
(0.0920779 -0.18591 0)
(0.0844701 -0.164943 1.89659e-19)
(0.0928583 -0.18452 2.23908e-19)