/*--------------------------------*- C++ -*----------------------------------*\
| =========                 |                                                 |
| \\      /  F ield         | OpenFOAM: The Open Source CFD Toolbox           |
|  \\    /   O peration     | Version:  v1806                                 |
|   \\  /    A nd           | Web:      www.OpenFOAM.com                      |
|    \\/     M anipulation  |                                                 |
\*---------------------------------------------------------------------------*/
FoamFile
{
    version     2.0;
    format      ascii;
    class       volScalarField;
    location    "1";
    object      p;
}
// * * * * * * * * * * * * * * * * * * * * * * * * * * * * * * * * * * * * * //

dimensions      [0 2 -2 0 0 0 0];


internalField   nonuniform List<scalar> 
3072
(
-0.0515895
-0.0514889
-0.0513217
-0.051096
-0.0508353
-0.0504645
-0.0499228
-0.049222
-0.0483607
-0.0473691
-0.0462959
-0.0451926
-0.0483232
-0.0482759
-0.0483643
-0.0485222
-0.0485386
-0.0483505
-0.0479943
-0.0472317
-0.0461354
-0.0447981
-0.0433406
-0.0419044
-0.0467121
-0.046826
-0.0472313
-0.0476974
-0.0479693
-0.047883
-0.0473079
-0.0463667
-0.0450413
-0.0434083
-0.0416014
-0.0397832
-0.0441245
-0.0444082
-0.0450051
-0.045553
-0.045845
-0.0457773
-0.0452627
-0.0443066
-0.042904
-0.0411017
-0.0389937
-0.0366854
-0.0411977
-0.0414577
-0.0419837
-0.0424611
-0.0427305
-0.0426684
-0.0421774
-0.0412196
-0.0397568
-0.0378009
-0.0353935
-0.0326191
-0.0378281
-0.0377991
-0.0380488
-0.0383622
-0.0385861
-0.0385369
-0.0380808
-0.0371577
-0.0356095
-0.0334078
-0.0306416
-0.0274661
-0.0342852
-0.0336901
-0.0335675
-0.0337409
-0.03397
-0.0338979
-0.0333091
-0.0321199
-0.030354
-0.027921
-0.0248568
-0.0214496
-0.0308316
-0.0295307
-0.0291874
-0.0295209
-0.0300198
-0.0299678
-0.0290255
-0.0272713
-0.0248984
-0.0220387
-0.0187511
-0.0154603
-0.0274269
-0.0255146
-0.0252719
-0.0261559
-0.0271928
-0.0272485
-0.025964
-0.0235982
-0.0205323
-0.0171482
-0.0137056
-0.0105162
-0.0236161
-0.0213894
-0.0214737
-0.0230636
-0.0247831
-0.0251619
-0.0238594
-0.0211542
-0.0176782
-0.0139578
-0.0103236
-0.00704213
-0.0191399
-0.0167911
-0.01737
-0.0198397
-0.0223752
-0.0232946
-0.022167
-0.0193999
-0.0157832
-0.0119886
-0.00833586
-0.00500442
-0.0143013
-0.0120879
-0.0131381
-0.0165602
-0.0198879
-0.0214032
-0.0206403
-0.0180427
-0.0145065
-0.0107993
-0.00722098
-0.00389345
-0.0441231
-0.0431485
-0.0422905
-0.0415896
-0.0411166
-0.040863
-0.0407568
-0.04064
-0.0403475
-0.039855
-0.0392787
-0.0387719
-0.04062
-0.0395388
-0.0386791
-0.0381324
-0.0380051
-0.0382121
-0.0385809
-0.0387947
-0.0385755
-0.0378669
-0.0368457
-0.0359715
-0.0380572
-0.036463
-0.0351516
-0.0343649
-0.0341434
-0.0344103
-0.0349779
-0.0354296
-0.035341
-0.0345687
-0.033533
-0.0327745
-0.0343001
-0.0320788
-0.0303583
-0.0293093
-0.0288501
-0.0289449
-0.0293428
-0.0297364
-0.0297937
-0.0294742
-0.0290981
-0.0289205
-0.0297523
-0.0272618
-0.0254673
-0.0243663
-0.0238215
-0.023681
-0.0237636
-0.023881
-0.0238735
-0.0238539
-0.0242668
-0.0248788
-0.0243734
-0.0219323
-0.020336
-0.0194213
-0.018942
-0.0187057
-0.0185968
-0.0185133
-0.0183901
-0.0182246
-0.0187094
-0.0203996
-0.0183818
-0.0161505
-0.0148556
-0.0142345
-0.0139632
-0.0137895
-0.0136196
-0.0132662
-0.0129882
-0.0127683
-0.0129616
-0.015097
-0.0126046
-0.0105865
-0.009551
-0.00919822
-0.00909749
-0.00893424
-0.00854981
-0.00816124
-0.00764369
-0.00720493
-0.00711117
-0.00871617
-0.00787721
-0.00602878
-0.00506181
-0.00479183
-0.00479108
-0.00467767
-0.00427236
-0.00359503
-0.00264728
-0.00163144
-0.000825637
-0.00133703
-0.00438666
-0.00258652
-0.00166734
-0.00136783
-0.00129583
-0.00112914
-0.000651123
0.000237769
0.0015697
0.00324201
0.00519203
0.00629544
-0.00222766
-0.000255394
0.000840931
0.00125569
0.00137437
0.00158244
0.00213097
0.00315479
0.00477494
0.00706255
0.00993705
0.0124443
-0.00103777
0.00110014
0.00245544
0.0031265
0.00337397
0.00357354
0.00405396
0.00502314
0.00661081
0.00891564
0.0123059
0.0154209
-0.0517727
-0.0516023
-0.0513959
-0.0511673
-0.0509199
-0.0505606
-0.050024
-0.0493227
-0.0484602
-0.0474683
-0.0463962
-0.0452956
-0.0485016
-0.0484348
-0.0485191
-0.0486722
-0.0486829
-0.048487
-0.0481205
-0.0473486
-0.0462418
-0.0448959
-0.0434333
-0.0419971
-0.0468729
-0.0469785
-0.0473846
-0.0478513
-0.0481204
-0.0480281
-0.047443
-0.0464875
-0.0451482
-0.0435031
-0.0416877
-0.039865
-0.0442741
-0.0445601
-0.0451615
-0.0457144
-0.0460067
-0.0459357
-0.0454129
-0.0444441
-0.0430264
-0.0412083
-0.0390851
-0.0367617
-0.0413437
-0.0416064
-0.0421375
-0.0426214
-0.0428981
-0.0428376
-0.0423422
-0.0413758
-0.0398977
-0.0379209
-0.0354912
-0.0326932
-0.0379717
-0.0379464
-0.0382024
-0.0385249
-0.0387583
-0.0387147
-0.0382589
-0.0373344
-0.0357661
-0.0335288
-0.0307454
-0.0275411
-0.0344272
-0.0338351
-0.0337156
-0.0338926
-0.0341242
-0.0340546
-0.0334684
-0.0322642
-0.0304796
-0.0280391
-0.0249942
-0.0215269
-0.0309708
-0.0296708
-0.0293247
-0.029651
-0.0301381
-0.0300757
-0.0291263
-0.0273696
-0.0249928
-0.0221115
-0.0187529
-0.015511
-0.0275635
-0.0256512
-0.0254035
-0.0262729
-0.0272846
-0.0273161
-0.0260171
-0.0236445
-0.0205798
-0.0171953
-0.0137464
-0.0105873
-0.0237496
-0.021524
-0.0216042
-0.0231772
-0.0248637
-0.025209
-0.0238825
-0.0211697
-0.017698
-0.0139881
-0.0103718
-0.00712405
-0.0192613
-0.0169167
-0.0174955
-0.0199517
-0.0224526
-0.0233328
-0.0221776
-0.0194033
-0.0157983
-0.0120247
-0.00839797
-0.00509924
-0.0143978
-0.0121919
-0.0132495
-0.0166686
-0.0199685
-0.0214446
-0.0206516
-0.0180473
-0.0145282
-0.0108488
-0.00730172
-0.0040074
-0.0442318
-0.043264
-0.042411
-0.0417135
-0.041242
-0.0409878
-0.0408808
-0.0407642
-0.0404723
-0.0399802
-0.0394047
-0.0388991
-0.0407161
-0.039638
-0.0387823
-0.0382412
-0.0381117
-0.0383166
-0.0386849
-0.0389005
-0.0386817
-0.0379758
-0.0369624
-0.0360959
-0.0381351
-0.0365381
-0.0352294
-0.0344461
-0.0342296
-0.0344917
-0.0350509
-0.035495
-0.0354042
-0.0346441
-0.0336276
-0.0328876
-0.0343664
-0.0321477
-0.0304391
-0.0293997
-0.0289423
-0.0290301
-0.0294121
-0.0297886
-0.029841
-0.0295385
-0.0291948
-0.0290406
-0.029819
-0.0273428
-0.0255692
-0.0244839
-0.0239456
-0.0238002
-0.023869
-0.0239698
-0.023951
-0.0239314
-0.0243645
-0.0250055
-0.0244481
-0.0220295
-0.0204572
-0.0195584
-0.0190842
-0.0188416
-0.0187201
-0.0186257
-0.0184952
-0.0183209
-0.018799
-0.0205193
-0.0184653
-0.0162629
-0.0149927
-0.0143827
-0.0141097
-0.013926
-0.0137417
-0.0133821
-0.0130971
-0.0128736
-0.0130617
-0.0152074
-0.0126908
-0.0107129
-0.00970671
-0.00936213
-0.00925424
-0.00907735
-0.00868265
-0.00827852
-0.00775044
-0.00730667
-0.00720957
-0.00881955
-0.00798327
-0.00616801
-0.00523137
-0.00497162
-0.00496249
-0.0048324
-0.00441079
-0.00371877
-0.00275706
-0.00172756
-0.000919869
-0.00143767
-0.00450617
-0.00274302
-0.00184918
-0.00155664
-0.00147575
-0.00129186
-0.000795543
0.000109034
0.00145481
0.00315309
0.00508957
0.00619119
-0.00235808
-0.000419638
0.000653232
0.00106152
0.00118921
0.00141394
0.00198016
0.00301869
0.00464647
0.0069215
0.00981793
0.0123282
-0.00118358
0.000927336
0.00226462
0.0029312
0.00318626
0.00340047
0.00389716
0.00488039
0.00647788
0.00878809
0.0121935
0.0153153
-0.0517173
-0.0516288
-0.0514678
-0.0512428
-0.0509801
-0.0506071
-0.0500645
-0.0493636
-0.0485023
-0.0475108
-0.0464377
-0.0453344
-0.0484499
-0.0484051
-0.048495
-0.0486541
-0.0486717
-0.0484849
-0.0481296
-0.0473678
-0.0462719
-0.044935
-0.0434778
-0.0420424
-0.0468405
-0.0469555
-0.0473616
-0.0478285
-0.0481016
-0.0480163
-0.0474423
-0.0465016
-0.0451762
-0.0435429
-0.0417361
-0.0399183
-0.0442546
-0.0445383
-0.0451359
-0.0456849
-0.0459782
-0.0459117
-0.0453979
-0.044442
-0.0430388
-0.0412354
-0.0391262
-0.0368164
-0.041327
-0.041588
-0.0421161
-0.0425958
-0.0428667
-0.0428055
-0.0423148
-0.0413574
-0.0398933
-0.0379349
-0.0355246
-0.0327466
-0.0379552
-0.0379287
-0.038182
-0.0384988
-0.0387254
-0.0386777
-0.0382216
-0.0373
-0.0357489
-0.0335416
-0.0307716
-0.0275913
-0.0344075
-0.0338161
-0.0336979
-0.0338755
-0.0341082
-0.0340389
-0.0334515
-0.0322612
-0.030493
-0.0280564
-0.0249881
-0.0215733
-0.030948
-0.0296509
-0.0293114
-0.0296491
-0.030153
-0.0301057
-0.0291667
-0.0274115
-0.0250362
-0.022171
-0.0188734
-0.015582
-0.027539
-0.0256295
-0.0253901
-0.0262794
-0.0273242
-0.0273863
-0.0261034
-0.0237367
-0.0206672
-0.0172784
-0.0138311
-0.0106408
-0.0237266
-0.0215015
-0.0215887
-0.0231856
-0.0249155
-0.0253024
-0.0240031
-0.0212949
-0.0178141
-0.0140891
-0.0104525
-0.00717143
-0.0192497
-0.0169014
-0.017483
-0.0199596
-0.0225066
-0.0234358
-0.0223125
-0.0195437
-0.0159228
-0.0121251
-0.00847193
-0.00514191
-0.0144112
-0.0121973
-0.0132494
-0.0166772
-0.0200157
-0.0215423
-0.0207857
-0.0181889
-0.0146504
-0.0109422
-0.00736633
-0.00404261
-0.0442653
-0.0432909
-0.0424325
-0.0417306
-0.041256
-0.0410001
-0.0408915
-0.0407727
-0.040479
-0.0399858
-0.0394095
-0.0389028
-0.0407587
-0.0396774
-0.0388171
-0.0382696
-0.0381396
-0.0383435
-0.0387092
-0.0389212
-0.038701
-0.0379922
-0.0369725
-0.0361001
-0.0381918
-0.0365966
-0.0352843
-0.0344963
-0.034273
-0.0345357
-0.0350983
-0.0355455
-0.0354544
-0.0346849
-0.033653
-0.0328986
-0.0344296
-0.0322079
-0.0304878
-0.0294381
-0.0289765
-0.029067
-0.029459
-0.0298468
-0.0299015
-0.0295848
-0.0292159
-0.0290434
-0.0298781
-0.0273884
-0.0255951
-0.024494
-0.0239475
-0.0238038
-0.0238821
-0.0239948
-0.0239842
-0.0239642
-0.0243814
-0.025
-0.0244972
-0.0220577
-0.0204628
-0.0195479
-0.0190671
-0.0188279
-0.0187155
-0.0186291
-0.0185036
-0.0183353
-0.018818
-0.0205152
-0.0185049
-0.016276
-0.0149829
-0.0143611
-0.0140874
-0.0139103
-0.0137365
-0.0133805
-0.0130999
-0.0128779
-0.0130684
-0.0152057
-0.0127277
-0.0107133
-0.00968045
-0.00932678
-0.00922267
-0.00905517
-0.00866712
-0.00827359
-0.00775201
-0.00731018
-0.00721334
-0.00881783
-0.0080036
-0.00615794
-0.00519349
-0.00492281
-0.00491812
-0.00479938
-0.00438876
-0.00370644
-0.00275325
-0.00173173
-0.000922164
-0.00143231
-0.00451783
-0.00272015
-0.00180216
-0.00150079
-0.00142411
-0.00125141
-0.000767151
0.000127616
0.00146537
0.00314606
0.00509829
0.00620507
-0.00236634
-0.000394472
0.000702664
0.00112081
0.001245
0.00145972
0.00201504
0.00304528
0.00467095
0.00696101
0.00984408
0.0123565
-0.00118791
0.000952679
0.0023123
0.00298938
0.00324358
0.00345025
0.00393779
0.00491386
0.00650798
0.00881891
0.0122175
0.0153388
-0.0517644
-0.0515938
-0.0513867
-0.0511571
-0.0509086
-0.050548
-0.0500099
-0.0493069
-0.0484426
-0.0474488
-0.0463747
-0.0452722
-0.0484939
-0.0484264
-0.0485101
-0.0486624
-0.0486721
-0.0484748
-0.0481067
-0.0473329
-0.046224
-0.044876
-0.0434114
-0.0419736
-0.046867
-0.0469719
-0.0473771
-0.047843
-0.0481111
-0.0480174
-0.0474306
-0.046473
-0.0451312
-0.0434835
-0.0416657
-0.039841
-0.0442707
-0.0445559
-0.0451565
-0.0457085
-0.0459997
-0.0459273
-0.0454028
-0.0444317
-0.0430113
-0.0411902
-0.0390638
-0.0367374
-0.0413431
-0.0416052
-0.0421357
-0.042619
-0.0428947
-0.0428329
-0.0423356
-0.0413668
-0.0398857
-0.0379053
-0.0354717
-0.0326699
-0.0379746
-0.0379491
-0.0382048
-0.0385269
-0.0387595
-0.0387147
-0.0382571
-0.03733
-0.0357584
-0.0335167
-0.0307284
-0.02752
-0.0344337
-0.0338418
-0.0337222
-0.0338987
-0.0341295
-0.0340588
-0.033471
-0.0322643
-0.030476
-0.0280309
-0.0249792
-0.0215083
-0.0309809
-0.0296812
-0.0293345
-0.02966
-0.0301463
-0.0300827
-0.0291311
-0.0273718
-0.0249914
-0.0221057
-0.0187429
-0.0154943
-0.0275776
-0.0256653
-0.0254166
-0.0262853
-0.0272968
-0.0273273
-0.0260252
-0.023648
-0.0205779
-0.0171882
-0.0137342
-0.0105701
-0.0237689
-0.0215427
-0.0216211
-0.0231937
-0.0248808
-0.0252254
-0.0238951
-0.0211758
-0.0176967
-0.0139799
-0.0103579
-0.0071053
-0.0192886
-0.0169421
-0.0175174
-0.019972
-0.0224738
-0.0233535
-0.0221944
-0.0194125
-0.0157988
-0.0120175
-0.00838427
-0.00507995
-0.0144379
-0.0122271
-0.0132777
-0.016692
-0.0199916
-0.0214677
-0.0206713
-0.0180594
-0.0145313
-0.0108438
-0.00728979
-0.00398929
-0.0442067
-0.0432372
-0.0423827
-0.0416839
-0.0412113
-0.0409563
-0.0408481
-0.0407301
-0.0404364
-0.0399427
-0.0393662
-0.0388601
-0.0406912
-0.0396117
-0.0387545
-0.0382123
-0.0380822
-0.0382864
-0.0386534
-0.038867
-0.0386458
-0.0379376
-0.0369229
-0.036056
-0.0381092
-0.0365101
-0.0352001
-0.0344163
-0.0341991
-0.0344604
-0.0350181
-0.0354596
-0.0353657
-0.0346032
-0.0335857
-0.0328456
-0.0343393
-0.0321189
-0.0304096
-0.0293697
-0.0289116
-0.0289979
-0.0293773
-0.0297505
-0.0297998
-0.0294952
-0.0291508
-0.0289964
-0.0297928
-0.0273154
-0.0255414
-0.0244556
-0.0239162
-0.0237686
-0.023834
-0.023931
-0.0239088
-0.0238865
-0.024318
-0.0249582
-0.0244242
-0.0220045
-0.0204315
-0.0195314
-0.0190552
-0.0188095
-0.0186836
-0.0185852
-0.0184514
-0.0182742
-0.0187494
-0.0204685
-0.0184437
-0.0162396
-0.0149679
-0.0143557
-0.0140795
-0.0138915
-0.0137022
-0.0133387
-0.0130504
-0.0128242
-0.0130101
-0.0151542
-0.0126702
-0.01069
-0.00968198
-0.00933451
-0.00922258
-0.00904081
-0.00864156
-0.00823278
-0.00770108
-0.00725488
-0.00715631
-0.00876557
-0.00796217
-0.00614403
-0.00520542
-0.004943
-0.0049298
-0.00479464
-0.00436794
-0.00367134
-0.00270611
-0.0016742
-0.000866009
-0.00138437
-0.0044837
-0.002718
-0.00182196
-0.00152652
-0.00144164
-0.00125282
-0.000751297
0.000157914
0.00150714
0.00320877
0.00514293
0.00624252
-0.00233441
-0.000393067
0.000681918
0.00109278
0.00122442
0.00145408
0.00202549
0.00306867
0.00469946
0.00697383
0.00987106
0.0123786
-0.00116033
0.000954434
0.00229458
0.00296389
0.00322245
0.00344115
0.00394293
0.00493105
0.00653248
0.00884538
0.0122522
0.0153732
-0.0063126
-0.00737185
-0.00965993
-0.0140867
-0.0179784
-0.0198144
-0.019274
-0.0168619
-0.013546
-0.0100611
-0.00663009
-0.00332385
-0.00287834
-0.00673862
-0.00936306
-0.0131327
-0.0166409
-0.0182776
-0.0176851
-0.0154952
-0.0125901
-0.00947864
-0.00626778
-0.00301532
-0.00144265
-0.00609271
-0.00901497
-0.011997
-0.014753
-0.0161013
-0.0157195
-0.0140228
-0.0116508
-0.00895782
-0.00596101
-0.00268039
-0.000908302
-0.0049186
-0.00773709
-0.0102554
-0.0125793
-0.0139441
-0.0139208
-0.012738
-0.0108407
-0.00853938
-0.00575033
-0.00226818
-0.000404987
0.00183061
0.00337196
0.00426718
0.00467701
0.00490666
0.00526821
0.00598772
0.00717085
0.00865837
0.0099008
0.00727634
-0.000105126
0.00209784
0.00375732
0.00481219
0.00534047
0.00562282
0.00589203
0.00632776
0.0069521
0.00751776
0.00719829
0.00482709
0.00014513
0.00203725
0.00381419
0.00493714
0.00546796
0.00577327
0.0060061
0.00625714
0.00648605
0.00650602
0.00574544
0.00390317
0.000541049
0.0017132
0.0037433
0.00492239
0.00533267
0.00553652
0.00571333
0.00585544
0.0058864
0.00564688
0.0047582
0.0029616
-0.00635587
-0.00743253
-0.00974635
-0.014188
-0.0180615
-0.0198633
-0.019294
-0.0168772
-0.0135815
-0.0101275
-0.0067297
-0.00345718
-0.00285819
-0.00675733
-0.0094256
-0.0132192
-0.0167182
-0.0183319
-0.0177158
-0.0155276
-0.0126436
-0.00956157
-0.00638372
-0.00316716
-0.00139963
-0.00609066
-0.00905895
-0.0120671
-0.0148221
-0.0161511
-0.0157617
-0.0140721
-0.0117199
-0.00905278
-0.00608729
-0.00284231
-0.00087926
-0.00491295
-0.00777587
-0.0103221
-0.0126503
-0.0140046
-0.0139757
-0.0127994
-0.0109194
-0.00864156
-0.00588397
-0.00243304
-0.000567852
0.00164723
0.00317673
0.00407086
0.00448744
0.00472951
0.00510553
0.00583855
0.0070327
0.00853128
0.00978371
0.00717341
-0.000290107
0.00189961
0.00355697
0.0046159
0.0051501
0.00544235
0.0057238
0.00617198
0.00680714
0.00738336
0.00707074
0.00470139
-5.55518e-05
0.00182312
0.00361081
0.00474223
0.00527749
0.00558972
0.00583343
0.00609541
0.0063343
0.00636276
0.00560679
0.00376434
0.00033208
0.00149938
0.00354747
0.00473171
0.00514268
0.00535192
0.00553625
0.00568786
0.00572765
0.00549589
0.004614
0.0028271
-0.00641261
-0.00747629
-0.00976728
-0.0141997
-0.0181011
-0.0199488
-0.0194175
-0.0170093
-0.0136937
-0.0102104
-0.00678548
-0.00348713
-0.00296552
-0.00683575
-0.00946542
-0.0132432
-0.016762
-0.0184108
-0.0178283
-0.0156432
-0.0127401
-0.00963293
-0.00643205
-0.0031936
-0.00151749
-0.00617385
-0.009112
-0.0121087
-0.0148764
-0.0162357
-0.0158626
-0.0141708
-0.0118022
-0.00911546
-0.00613161
-0.00286854
-0.000986669
-0.00499129
-0.0078333
-0.0103708
-0.0127052
-0.0140795
-0.0140647
-0.0128867
-0.0109935
-0.00869912
-0.00592687
-0.00246231
-0.000570562
0.00167155
0.00322188
0.00412696
0.00454508
0.00478229
0.00515126
0.00587803
0.00706827
0.00856355
0.0098136
0.00719793
-0.000292434
0.00192233
0.00359877
0.00466864
0.00520664
0.00549694
0.00577367
0.00621682
0.00684852
0.00742203
0.0071094
0.00474313
-5.8973e-05
0.00184543
0.00364969
0.00479146
0.00533224
0.00564524
0.00588601
0.00614446
0.00638072
0.00640798
0.00565352
0.0038157
0.000325984
0.00152389
0.00358441
0.00477746
0.00519549
0.00540697
0.00559091
0.00574029
0.00577852
0.00554612
0.00466409
0.00287487
-0.00641472
-0.0074825
-0.00978275
-0.0142137
-0.0180845
-0.0198861
-0.0193147
-0.0168917
-0.0135876
-0.0101255
-0.00672041
-0.00344107
-0.00293352
-0.00681885
-0.00946855
-0.0132492
-0.0167439
-0.0183558
-0.0177385
-0.0155444
-0.0126524
-0.00956264
-0.00637743
-0.00315363
-0.00147757
-0.00615344
-0.00910616
-0.0121033
-0.0148531
-0.0161811
-0.0157873
-0.0140912
-0.0117313
-0.00905665
-0.00608398
-0.00283165
-0.000953918
-0.00497413
-0.00782486
-0.0103617
-0.012684
-0.0140361
-0.0140033
-0.0128208
-0.0109331
-0.00864765
-0.0058832
-0.00242514
-0.000545864
0.00167373
0.00320665
0.00410395
0.00452421
0.00477069
0.00515142
0.0058893
0.00708798
0.00859108
0.00984748
0.00724739
-0.000270126
0.00192464
0.00358579
0.00464817
0.00518641
0.00548339
0.00576958
0.00622254
0.00686217
0.00744288
0.00713531
0.00477237
-3.81917e-05
0.00184605
0.0036375
0.00477254
0.00531228
0.00562935
0.00587858
0.00614547
0.00638858
0.0064204
0.00566802
0.00383115
0.00034646
0.00152011
0.00357158
0.00475943
0.0051754
0.00539004
0.00557979
0.00573653
0.00578028
0.00555012
0.00466739
0.00289715
-0.000717969
-0.00390938
-0.00655141
-0.00888837
-0.0108731
-0.0121591
-0.0122863
-0.0114518
-0.00992697
-0.00791991
-0.00543903
-0.00263046
-0.000771014
-0.0033978
-0.00577862
-0.00787024
-0.00957121
-0.010651
-0.0108551
-0.0102641
-0.0090223
-0.00730792
-0.00510993
-0.00271948
-0.000824812
-0.00304827
-0.00516461
-0.00700561
-0.00848263
-0.00942042
-0.00965984
-0.00923701
-0.00824365
-0.00684017
-0.00492218
-0.00286872
-0.000865441
-0.00279134
-0.00464121
-0.00626906
-0.00756642
-0.00839961
-0.00866369
-0.00837701
-0.00760996
-0.0064885
-0.00498821
-0.00331508
2.19704e-07
0.00161775
0.00343042
0.00446221
0.00497774
0.00525453
0.00540115
0.00544643
0.00532439
0.00490517
0.003935
0.00224321
-0.000207014
0.00147589
0.00311949
0.00412024
0.00467585
0.0049825
0.00510283
0.00506961
0.00483348
0.00429018
0.00327456
0.00165133
-0.000119512
0.00156552
0.00296956
0.00386312
0.00438999
0.00466729
0.00476345
0.00467608
0.00436718
0.00375832
0.00274241
0.00123254
0.000468021
0.00198693
0.00299996
0.0037103
0.00416002
0.00438785
0.00443432
0.00429255
0.0039324
0.00329419
0.00230614
0.000920908
-0.000689935
-0.00390774
-0.00658348
-0.00894582
-0.0109401
-0.0122191
-0.0123457
-0.0115187
-0.0100098
-0.00802461
-0.00557243
-0.00279729
-0.00073926
-0.0033907
-0.005799
-0.00791552
-0.0096268
-0.0107083
-0.0109151
-0.0103344
-0.00910748
-0.00741252
-0.00523975
-0.00287778
-0.000795046
-0.0030368
-0.00517705
-0.00704082
-0.00853022
-0.00947491
-0.00972101
-0.00930826
-0.00832846
-0.00694145
-0.00504668
-0.00301657
-0.00083776
-0.00277761
-0.00464924
-0.00629731
-0.00760802
-0.00845076
-0.0087234
-0.00844703
-0.00769256
-0.00658594
-0.00510411
-0.0034502
-0.000233142
0.00141467
0.00323865
0.00427179
0.00478873
0.0050704
0.00522348
0.00527704
0.00516325
0.00475231
0.00379139
0.00211374
-0.000405692
0.00127873
0.00292797
0.00393134
0.00448943
0.00480132
0.00492753
0.00490173
0.00467355
0.00413883
0.00313324
0.00152355
-0.000301136
0.00137477
0.00278036
0.00367617
0.00420585
0.00448768
0.00459024
0.00450998
0.00420893
0.00360877
0.00260302
0.00110573
0.00029221
0.00180042
0.00281343
0.00352562
0.00397821
0.00421028
0.00426295
0.00412802
0.00377557
0.00314603
0.00216791
0.000794386
-0.000796027
-0.00399156
-0.00665035
-0.00900457
-0.011
-0.0122934
-0.0124291
-0.0115993
-0.0100797
-0.00808061
-0.00561354
-0.00282298
-0.000848763
-0.00348212
-0.00587631
-0.00798443
-0.00969511
-0.0107827
-0.0109935
-0.0104089
-0.00917318
-0.00746682
-0.00527974
-0.0029024
-0.000906761
-0.00313345
-0.00526168
-0.00711732
-0.00860383
-0.00954955
-0.0097957
-0.00937943
-0.00839249
-0.0069969
-0.00508764
-0.00304342
-0.000951021
-0.00287792
-0.00473847
-0.00637874
-0.00768523
-0.00852635
-0.00879731
-0.00851727
-0.00775668
-0.00664239
-0.00514971
-0.00348317
-0.000234675
0.00143666
0.00327264
0.00431569
0.00483945
0.0051239
0.00527767
0.0053302
0.00521545
0.00480359
0.00384093
0.00215802
-0.000404789
0.00130038
0.00296119
0.00397338
0.00453762
0.00485214
0.00497967
0.00495371
0.00472491
0.00418915
0.00318141
0.00156703
-0.000298727
0.00139667
0.00281309
0.00371682
0.00425211
0.00453699
0.00464068
0.00456066
0.0042592
0.00365799
0.00265009
0.00114889
0.000297527
0.00182339
0.00284596
0.00356526
0.00402293
0.00425819
0.00431208
0.00417763
0.00382491
0.00319435
0.0022143
0.000837535
-0.00076367
-0.00396994
-0.00663514
-0.00898889
-0.0109767
-0.0122528
-0.0123749
-0.0115417
-0.0100254
-0.00803278
-0.00557361
-0.00279158
-0.000813362
-0.00345444
-0.00585343
-0.00796173
-0.00966657
-0.0107436
-0.0109454
-0.0103582
-0.00912428
-0.00742208
-0.00524273
-0.00287321
-0.000869289
-0.00310145
-0.0052335
-0.0070893
-0.00857207
-0.00951126
-0.00975174
-0.0093329
-0.0083465
-0.00695236
-0.00505217
-0.00301348
-0.000912196
-0.00284326
-0.0047067
-0.00634727
-0.00765131
-0.00848815
-0.00875503
-0.00847279
-0.00771219
-0.00659932
-0.00511168
-0.00345007
-0.000219828
0.00143468
0.00326252
0.00429985
0.00482172
0.00510864
0.0052668
0.00532566
0.00521718
0.00481094
0.00385402
0.00218501
-0.00039254
0.00129875
0.00295268
0.0039606
0.00452368
0.00484113
0.00497243
0.00495196
0.0047294
0.00420076
0.00320132
0.00159753
-0.000287795
0.00139503
0.00280581
0.00370645
0.0042411
0.00452814
0.00463626
0.00456145
0.00426577
0.00367129
0.00267229
0.00118246
0.000306794
0.00182154
0.00283981
0.00355689
0.00401438
0.00425146
0.00430972
0.00418019
0.003833
0.00320862
0.00223671
0.000871579
-0.000900839
-0.00258163
-0.00421152
-0.00565646
-0.00680955
-0.00756505
-0.00785133
-0.00767808
-0.0071036
-0.00623374
-0.00515255
-0.00407038
-0.000926734
-0.00241429
-0.00386519
-0.00515943
-0.00619829
-0.00689598
-0.0071995
-0.00711612
-0.00669273
-0.00602192
-0.00520981
-0.00443437
-0.000945898
-0.00228469
-0.00359107
-0.00476303
-0.00571176
-0.00636525
-0.00668154
-0.00666861
-0.00636456
-0.00585333
-0.00524313
-0.00468972
-0.000961526
-0.00218394
-0.00337517
-0.00444904
-0.00532659
-0.00594624
-0.00627389
-0.00631633
-0.00610827
-0.00572504
-0.00526634
-0.00486707
-0.000974318
-0.00210427
-0.00320489
-0.00420058
-0.00502193
-0.00561574
-0.00595395
-0.00604046
-0.00590944
-0.00562778
-0.00528358
-0.00499253
-0.000982991
-0.00204227
-0.00307063
-0.00400426
-0.00478157
-0.00535551
-0.00570171
-0.00582455
-0.00575499
-0.00555287
-0.00529535
-0.00508123
-0.000988163
-0.00199427
-0.00296529
-0.00385055
-0.00459362
-0.00515248
-0.00550492
-0.00565704
-0.00563576
-0.00549512
-0.00530294
-0.00514389
-0.000991558
-0.00195633
-0.00288384
-0.0037322
-0.00444919
-0.00499702
-0.00535743
-0.00552951
-0.00554524
-0.00545131
-0.0053079
-0.00518826
-0.000993959
-0.00192623
-0.00282242
-0.00364361
-0.00434142
-0.00488127
-0.00524511
-0.00543506
-0.00547866
-0.00541934
-0.0053116
-0.00521985
-0.000995572
-0.00190257
-0.00277814
-0.00358043
-0.00426496
-0.00479973
-0.005166
-0.00536895
-0.00543258
-0.00539786
-0.00531522
-0.00524255
-0.000995015
-0.00188567
-0.00274861
-0.00353925
-0.00421559
-0.0047481
-0.00511581
-0.00532753
-0.00540442
-0.00538587
-0.00531961
-0.00525929
-0.000992854
-0.00187572
-0.00273236
-0.00351714
-0.00418873
-0.0047143
-0.00509032
-0.00530746
-0.00539158
-0.0053816
-0.00532405
-0.00527177
0.00174883
0.00251443
0.00313111
0.00363599
0.00398049
0.00414443
0.00413876
0.00395041
0.00355305
0.00290315
0.00195385
0.000683119
0.00249011
0.00286737
0.00325001
0.00359259
0.00383525
0.00393401
0.00387867
0.00365204
0.00322955
0.00257886
0.0016706
0.000499006
0.00290472
0.00309014
0.00332708
0.0035554
0.00371298
0.0037528
0.00365368
0.00339569
0.00295615
0.00231079
0.00144187
0.000353589
0.00312886
0.00322401
0.00337053
0.00351777
0.00360787
0.00359784
0.0034618
0.00317866
0.00272768
0.0020905
0.00125723
0.000237886
0.00325446
0.00330305
0.00339106
0.00347971
0.00351747
0.00346681
0.00330053
0.00299758
0.00253911
0.00191108
0.00110899
0.000146263
0.00332607
0.00334857
0.00339721
0.00344292
0.00344062
0.00335768
0.00316728
0.00284899
0.00238575
0.00176672
0.000991162
7.45732e-05
0.00336595
0.00337322
0.00339491
0.00340914
0.00337667
0.00326874
0.00305958
0.00272965
0.00226349
0.00165263
0.00089895
1.92557e-05
0.00338679
0.00338487
0.00338818
0.0033797
0.00332509
0.00319845
0.00297515
0.00263664
0.00216878
0.00156487
0.000828604
-2.24751e-05
0.00339582
0.00338848
0.00337969
0.00335552
0.00328536
0.00314544
0.00291197
0.00256743
0.00209865
0.00150026
0.000777208
-5.26771e-05
0.00339723
0.00338708
0.00337107
0.003337
0.00325691
0.00310843
0.00286824
0.0025198
0.0020506
0.00145625
0.000742517
-7.27432e-05
0.0033931
0.00338242
0.00336327
0.00332428
0.00323904
0.0030852
0.00284224
0.00249175
0.00202247
0.0014307
0.000722778
-8.35677e-05
0.00338475
0.00337672
0.00335751
0.00331737
0.00323063
0.00307542
0.00283106
0.00247987
0.00201067
0.00142017
0.000715108
-8.72039e-05
-0.000870233
-0.00256704
-0.00421628
-0.00567933
-0.00684613
-0.00761252
-0.00790862
-0.00774593
-0.00718324
-0.00632646
-0.00525941
-0.00418891
-0.000893375
-0.00239851
-0.00386707
-0.00517818
-0.00623087
-0.00694019
-0.00725428
-0.00718151
-0.00676925
-0.00610994
-0.005309
-0.00454181
-0.000911619
-0.00226764
-0.00359082
-0.00477878
-0.00574127
-0.00640675
-0.00673401
-0.00673157
-0.006438
-0.00593698
-0.00533591
-0.00478869
-0.000926899
-0.00216591
-0.0033735
-0.00446265
-0.00535374
-0.00598553
-0.00632431
-0.00637703
-0.00617889
-0.00580486
-0.00535389
-0.00495949
-0.000938933
-0.00208614
-0.00320221
-0.00421255
-0.00504725
-0.0056532
-0.00600258
-0.00609916
-0.00597758
-0.00570435
-0.00536689
-0.00507985
-0.000946462
-0.00202463
-0.00306724
-0.004015
-0.00480545
-0.00539146
-0.00574889
-0.00588151
-0.005821
-0.00562673
-0.00537524
-0.00516456
-0.000951298
-0.00197638
-0.00296135
-0.0038604
-0.00461636
-0.00518715
-0.00555096
-0.00571249
-0.00569998
-0.00556676
-0.00538011
-0.0052241
-0.000954428
-0.00193823
-0.00287949
-0.0037413
-0.00447106
-0.0050306
-0.00540112
-0.00558364
-0.005608
-0.00552118
-0.00538295
-0.0052661
-0.000956885
-0.00190781
-0.00281764
-0.00365211
-0.00436262
-0.0049141
-0.00528834
-0.00548823
-0.00554031
-0.00548787
-0.00538505
-0.00529591
-0.000958866
-0.00188376
-0.00277286
-0.00358849
-0.00428567
-0.00483203
-0.00520876
-0.00542143
-0.00549342
-0.00546542
-0.00538755
-0.00531737
-0.000958776
-0.00186633
-0.00274305
-0.00354698
-0.00423596
-0.00478007
-0.00515825
-0.00537958
-0.00546473
-0.00545282
-0.00539123
-0.00533334
-0.0009569
-0.00185609
-0.00272663
-0.00352473
-0.00420891
-0.00474597
-0.00513259
-0.0053593
-0.00545165
-0.00544825
-0.00539534
-0.00534546
0.00157108
0.00233067
0.00294721
0.00345359
0.00380093
0.00396908
0.00396927
0.00378743
0.00339754
0.00275616
0.00181646
0.000556577
0.0023115
0.0026856
0.00306827
0.00341226
0.00365775
0.00376067
0.00371091
0.00349063
0.00307538
0.00243293
0.00153389
0.000372387
0.00272592
0.00290977
0.003147
0.00337685
0.00353729
0.00358122
0.00348743
0.00323568
0.00280325
0.00216584
0.00130571
0.00022692
0.00295026
0.00304473
0.00319182
0.00334075
0.00343375
0.00342778
0.00329689
0.00301985
0.00257584
0.00194636
0.00112149
0.00011115
0.00307626
0.00312468
0.00321349
0.00330397
0.00334467
0.00329803
0.00313679
0.0028398
0.00238814
0.00176759
0.000973579
1.941e-05
0.00314834
0.00317098
0.00322061
0.00326825
0.00326892
0.00318998
0.00300453
0.00269207
0.00223548
0.00162373
0.000855987
-5.24208e-05
0.00318869
0.00319629
0.0032191
0.00323534
0.00320587
0.00310192
0.00289763
0.00257343
0.00211376
0.00151002
0.000763953
-0.000107853
0.00320994
0.00320849
0.003213
0.00320661
0.003155
0.00303234
0.00281385
0.00248098
0.00201949
0.00142256
0.000693746
-0.000149658
0.00321933
0.00321253
0.00320501
0.00318295
0.00311583
0.00297989
0.00275116
0.00241219
0.00194969
0.00135819
0.000642458
-0.000179887
0.00322101
0.00321145
0.00319676
0.00316483
0.00308775
0.00294329
0.00270777
0.00236485
0.00190188
0.00131434
0.000607844
-0.000199946
0.00321707
0.00320701
0.00318919
0.00315236
0.00307011
0.00292003
0.00268194
0.00233698
0.00187388
0.00128888
0.000588158
-0.000210757
0.00320882
0.00320142
0.00318356
0.00314557
0.00306181
0.00291039
0.00267084
0.00232516
0.00186214
0.00127839
0.000580519
-0.000214385
-0.000984945
-0.00267004
-0.00430907
-0.00576455
-0.00692639
-0.00768973
-0.00798306
-0.00781643
-0.00724827
-0.00638488
-0.00530998
-0.00423199
-0.00100937
-0.00250338
-0.00396263
-0.00526636
-0.00631366
-0.00701905
-0.00732961
-0.00725275
-0.00683545
-0.00617047
-0.00536353
-0.00459111
-0.00102836
-0.00237413
-0.0036885
-0.00486921
-0.00582604
-0.00648704
-0.00681027
-0.0068037
-0.00650547
-0.00599954
-0.0053937
-0.00484269
-0.00104421
-0.0022737
-0.00347277
-0.00455479
-0.00544007
-0.00606703
-0.00640148
-0.00645006
-0.00624755
-0.00586918
-0.00541428
-0.00501703
-0.00105693
-0.00219465
-0.00330267
-0.00430602
-0.00513482
-0.00573572
-0.00608057
-0.006173
-0.0060473
-0.00577014
-0.00542934
-0.00514006
-0.00106523
-0.0021335
-0.0031686
-0.00410951
-0.00489401
-0.00547483
-0.00582756
-0.00595608
-0.00589162
-0.00569375
-0.00543933
-0.00522682
-0.00107055
-0.00208571
-0.00306337
-0.00395569
-0.00470571
-0.00527125
-0.00563019
-0.00578771
-0.00577135
-0.00563476
-0.00544549
-0.00528792
-0.00107407
-0.00204793
-0.002982
-0.00383722
-0.00456101
-0.00511531
-0.0054815
-0.00565944
-0.00567999