/*--------------------------------*- C++ -*----------------------------------*\
| =========                 |                                                 |
| \\      /  F ield         | OpenFOAM: The Open Source CFD Toolbox           |
|  \\    /   O peration     | Version:  v1806                                 |
|   \\  /    A nd           | Web:      www.OpenFOAM.com                      |
|    \\/     M anipulation  |                                                 |
\*---------------------------------------------------------------------------*/
FoamFile
{
    version     2.0;
    format      ascii;
    class       surfaceScalarField;
    location    "1";
    object      phi;
}
// * * * * * * * * * * * * * * * * * * * * * * * * * * * * * * * * * * * * * //

dimensions      [0 3 -1 0 0 0 0];
oriented        oriented;


internalField   nonuniform List<scalar> 
5856
(
-4.60123e-08
4.60123e-08
-3.39523e-08
-1.20599e-08
6.46021e-08
-9.85544e-08
2.04642e-07
-1.4004e-07
3.14203e-07
-1.09561e-07
3.55533e-07
-4.13297e-08
3.43415e-07
1.21185e-08
2.78823e-07
6.45912e-08
1.70242e-07
1.08581e-07
3.86287e-08
1.31613e-07
-8.33101e-08
1.21939e-07
7.42236e-08
-1.57534e-07
-4.02458e-08
8.62581e-08
9.88837e-08
-1.51189e-07
2.56856e-07
-2.56527e-07
3.66345e-07
-2.49529e-07
4.30308e-07
-1.73525e-07
4.75559e-07
-8.65802e-08
4.60737e-07
2.69407e-08
3.88023e-07
1.37305e-07
2.72987e-07
2.23618e-07
1.26734e-07
2.77866e-07
-3.16319e-08
2.80305e-07
2.22246e-07
-1.79655e-07
6.98355e-08
1.64226e-08
1.81881e-07
-2.63235e-07
2.4116e-07
-3.15805e-07
2.34979e-07
-2.43348e-07
1.95335e-07
-1.3388e-07
1.25489e-07
-1.67347e-08
6.77888e-08
8.4641e-08
2.1155e-08
1.83939e-07
-3.42149e-08
2.78988e-07
-1.17995e-07
3.61646e-07
-2.48134e-07
4.10444e-07
4.40217e-07
-4.66105e-07
2.67249e-08
-1.03022e-08
-1.36677e-08
-2.22843e-07
-1.58593e-07
-1.70879e-07
-3.41102e-07
-6.0839e-08
-4.92921e-07
1.79389e-08
-5.73871e-07
6.42147e-08
-5.92584e-07
1.03354e-07
-5.67305e-07
1.5866e-07
-5.31861e-07
2.43544e-07
-5.2975e-07
3.59535e-07
-6.22922e-07
5.03616e-07
6.8997e-07
-8.72675e-07
-1.05555e-07
9.52533e-08
-3.84935e-07
5.65375e-08
-7.42726e-07
1.86911e-07
-1.0665e-06
2.62931e-07
-1.28738e-06
2.38822e-07
-1.3773e-06
1.54139e-07
-1.34749e-06
7.35419e-08
-1.23192e-06
4.30891e-08
-1.08672e-06
9.83446e-08
-9.76906e-07
2.49721e-07
-9.66583e-07
4.93294e-07
8.20812e-07
-1.09743e-06
-3.27802e-07
4.23056e-07
-8.43671e-07
5.72406e-07
-1.40052e-06
7.43762e-07
-1.8865e-06
7.48907e-07
-2.21353e-06
5.65855e-07
-2.33482e-06
2.7543e-07
-2.25745e-06
-3.82671e-09
-2.02391e-06
-1.90457e-07
-1.71557e-06
-2.09992e-07
-1.42796e-06
-3.78862e-08
-1.20808e-06
2.73407e-07
6.86313e-07
-1.07358e-06
-5.2081e-07
9.43865e-07
-1.21191e-06
1.26351e-06
-1.93131e-06
1.46317e-06
-2.55736e-06
1.37496e-06
-2.98585e-06
9.94346e-07
-3.16152e-06
4.51095e-07
-3.08735e-06
-7.79937e-08
-2.79813e-06
-4.79681e-07
-2.3525e-06
-6.55612e-07
-1.82096e-06
-5.69435e-07
-1.32291e-06
-2.24639e-07
2.30253e-07
-8.66849e-07
-5.58169e-07
1.50203e-06
-1.26201e-06
1.96735e-06
-1.97101e-06
2.17216e-06
-2.56855e-06
1.9725e-06
-2.9616e-06
1.3874e-06
-3.12623e-06
6.15727e-07
-3.08602e-06
-1.18209e-07
-2.88263e-06
-6.83068e-07
-2.51842e-06
-1.01982e-06
-1.98774e-06
-1.10012e-06
-1.30295e-06
-9.09422e-07
-4.92511e-07
-5.80188e-07
-3.81851e-07
1.88389e-06
-8.88733e-07
2.47423e-06
-1.37741e-06
2.66084e-06
-1.75881e-06
2.35389e-06
-1.96949e-06
1.59809e-06
-2.0253e-06
6.71538e-07
-1.97751e-06
-1.66001e-07
-1.8648e-06
-7.9578e-07
-1.68757e-06
-1.19705e-06
-1.40353e-06
-1.38416e-06
-9.36748e-07
-1.3762e-06
-1.1759e-06
-2.53362e-07
-4.20709e-08
1.92596e-06
-2.08863e-07
2.64103e-06
-3.3866e-07
2.79063e-06
-4.48611e-07
2.46384e-06
-5.13147e-07
1.66262e-06
-5.17343e-07
6.75735e-07
-4.5295e-07
-2.30394e-07
-3.33162e-07
-9.15569e-07
-1.88544e-07
-1.34166e-06
-2.02343e-08
-1.55247e-06
2.13086e-07
-1.60952e-06
-1.54417e-06
5.81361e-07
4.17414e-07
1.50854e-06
6.48622e-07
2.40982e-06
8.57096e-07
2.58216e-06
1.00187e-06
2.31907e-06
1.06904e-06
1.59545e-06
1.1059e-06
6.38874e-07
1.16386e-06
-2.88352e-07
1.25149e-06
-1.00319e-06
1.36238e-06
-1.45255e-06
1.50675e-06
-1.69684e-06
1.70157e-06
-1.80435e-06
-1.79697e-06
1.95437e-06
4.92317e-07
1.01623e-06
1.26549e-06
1.63665e-06
1.91351e-06
1.93414e-06
2.36505e-06
1.86753e-06
2.63419e-06
1.3263e-06
2.79424e-06
4.78828e-07
2.89237e-06
-3.86487e-07
2.9493e-06
-1.06012e-06
2.98811e-06
-1.49137e-06
3.04466e-06
-1.75339e-06
3.15525e-06
-1.91493e-06
3.33981e-06
-1.98154e-06
-1.62616e-07
5.08235e-09
-1.21336e-07
-4.12802e-08
-5.1248e-08
-7.00876e-08
7.23219e-08
-1.2357e-07
2.42235e-07
-1.69913e-07
4.2936e-07
-1.87125e-07
5.87832e-07
-1.58472e-07
6.61905e-07
-7.40728e-08
6.17511e-07
4.43934e-08
4.48464e-07
1.69048e-07
1.95185e-07
2.53279e-07
1.95185e-07
-3.29016e-07
1.54444e-07
-4.99189e-07
1.28893e-07
-6.36629e-07
6.73519e-08
-6.72801e-07
-8.73976e-08
-5.99943e-07
-2.4277e-07
-4.32335e-07
-3.54734e-07
-2.18027e-07
-3.72779e-07
-1.62537e-08
-2.75846e-07
1.2247e-07
-9.43302e-08
1.3093e-07
1.60588e-07
4.93775e-08
3.34831e-07
2.44563e-07
-8.03243e-07
4.91582e-07
-1.17454e-06
5.00195e-07
-1.4689e-06
3.6171e-07
-1.667e-06
1.10696e-07
-1.76236e-06
-1.47404e-07
-1.70591e-06
-4.1119e-07
-1.49736e-06
-5.81322e-07
-1.15266e-06
-6.20549e-07
-7.55246e-07
-4.91744e-07
-3.98904e-07
-1.95753e-07
-1.37926e-07
7.38523e-08
1.06636e-07
-1.26561e-06
8.84515e-07
-1.69276e-06
9.27349e-07
-2.08126e-06
7.50205e-07
-2.41127e-06
4.40707e-07
-2.63414e-06
7.54652e-08
-2.72848e-06
-3.16843e-07
-2.62318e-06
-6.86628e-07
-2.26617e-06
-9.77562e-07
-1.64735e-06
-1.11056e-06
-8.49941e-07
-9.93164e-07
-1.95737e-07
-5.80351e-07
-8.91005e-08
-1.33484e-06
1.12193e-06
-1.61335e-06
1.20586e-06
-1.91028e-06
1.04713e-06
-2.21837e-06
7.488e-07
-2.50473e-06
3.61824e-07
-2.72597e-06
-9.56046e-08
-2.82774e-06
-5.84859e-07
-2.73347e-06
-1.07183e-06
-2.33019e-06
-1.51384e-06
-1.5314e-06
-1.79195e-06
-5.02467e-07
-1.60929e-06
-5.91568e-07
-1.01407e-06
1.06242e-06
-1.01361e-06
1.20541e-06
-1.06509e-06
1.09862e-06
-1.16173e-06
8.45441e-07
-1.30612e-06
5.06206e-07
-1.50898e-06
1.07256e-07
-1.74604e-06
-3.47799e-07
-1.95516e-06
-8.62708e-07
-2.02885e-06
-1.44015e-06
-1.76856e-06
-2.05224e-06
-9.50059e-07
-2.42779e-06
-1.54163e-06
-4.77083e-07
6.72652e-07
-1.79936e-07
9.08259e-07
6.3019e-09
9.12378e-07
9.67045e-08
7.55038e-07
1.10656e-07
4.92255e-07
5.18211e-08
1.66091e-07
-1.20479e-07
-1.75499e-07
-3.93213e-07
-5.89974e-07
-7.43345e-07
-1.09002e-06
-1.05601e-06
-1.73958e-06
-9.21335e-07
-2.56246e-06
-2.46296e-06
9.67764e-08
-4.31219e-09
6.4419e-07
3.60845e-07
1.02363e-06
5.32941e-07
1.24329e-06
5.35376e-07
1.32432e-06
4.1123e-07
1.28531e-06
2.05095e-07
1.1574e-06
-4.75844e-08
9.19639e-07
-3.52216e-07
5.8017e-07
-7.50547e-07
1.32571e-07
-1.29198e-06
-2.80747e-07
-2.14914e-06
-2.74371e-06
5.53065e-07
-8.1074e-07
1.30835e-06
-3.94444e-07
1.88109e-06
-3.97981e-08
2.23413e-06
1.82339e-07
2.38031e-06
2.65055e-07
2.35667e-06
2.28731e-07
2.20246e-06
1.06628e-07
1.93433e-06
-8.40933e-08
1.54664e-06
-3.62853e-07
1.05388e-06
-7.99216e-07
4.26041e-07
-1.52131e-06
-2.31767e-06
1.13087e-06
-1.36025e-06
1.80636e-06
-1.06994e-06
2.47498e-06
-7.0842e-07
2.99394e-06
-3.36617e-07
3.2809e-06
-2.19049e-08
3.3284e-06
1.81231e-07
3.17836e-06
2.56671e-07
2.87716e-06
2.171e-07
2.44245e-06
7.18618e-08
1.82246e-06
-1.79229e-07
1.0209e-06
-7.1974e-07
-1.29677e-06
2.26839e-06
-1.67427e-06
2.64943e-06
-1.45097e-06
3.09431e-06
-1.1533e-06
3.55599e-06
-7.98293e-07
3.93859e-06
-4.04514e-07
4.1385e-06
-1.86754e-08
4.10408e-06
2.91088e-07
3.84229e-06
4.78896e-07
3.37488e-06
5.39273e-07
2.70107e-06
4.94582e-07
1.69027e-06
2.91059e-07
3.93494e-07
3.58439e-06
-1.91885e-06
3.84749e-06
-1.71408e-06
4.09672e-06
-1.40253e-06
4.33229e-06
-1.03387e-06
4.56688e-06
-6.39098e-07
4.77323e-06
-2.2503e-07
4.86948e-06
1.9484e-07
4.77196e-06
5.76416e-07
4.42992e-06
8.81315e-07
3.77069e-06
1.15381e-06
2.54719e-06
1.51456e-06
2.94069e-06
-4.37115e-08
4.37115e-08
-3.63019e-08
-7.40959e-09
6.99404e-08
-1.06242e-07
2.14044e-07
-1.44103e-07
3.24068e-07
-1.10024e-07
3.63753e-07
-3.96852e-08
3.49532e-07
1.42212e-08
2.82268e-07
6.72639e-08
1.70997e-07
1.11271e-07
3.72522e-08
1.33744e-07
-8.57206e-08
1.22973e-07
7.38482e-08
-1.59569e-07
-3.70905e-08
8.0802e-08
1.08223e-07
-1.52723e-07
2.63971e-07
-2.61991e-07
3.72637e-07
-2.52769e-07
4.36027e-07
-1.73414e-07
4.80966e-07
-8.46244e-08
4.63248e-07
3.19399e-08
3.8793e-07
1.42581e-07
2.70088e-07
2.29114e-07
1.20927e-07
2.82905e-07
-3.98545e-08
2.83754e-07
2.24347e-07
-1.90353e-07
6.90864e-08
1.17157e-08
1.84209e-07
-2.67845e-07
2.43285e-07
-3.21067e-07
2.37653e-07
-2.47137e-07
1.99167e-07
-1.34929e-07
1.29285e-07
-1.47421e-08
7.17205e-08
8.95047e-08
2.34376e-08
1.90864e-07
-3.51351e-08
2.87687e-07
-1.23011e-07
3.70781e-07
-2.5868e-07
4.19423e-07
4.50899e-07
-4.85233e-07
2.61388e-08
-1.44231e-08
-1.31338e-08
-2.28573e-07
-1.56525e-07
-1.77675e-07
-3.35441e-07
-6.82216e-08
-4.83541e-07
1.31713e-08
-5.62171e-07
6.3888e-08
-5.80666e-07
1.08e-07
-5.57499e-07
1.67697e-07
-5.26264e-07
2.56452e-07
-5.30748e-07
3.75265e-07
-6.33463e-07
5.22138e-07
7.11795e-07
-8.94359e-07
-1.056e-07
9.11773e-08
-3.83195e-07
4.90216e-08
-7.36515e-07
1.75646e-07
-1.05508e-06
2.50345e-07
-1.27077e-06
2.28864e-07
-1.35709e-06
1.50202e-07
-1.32675e-06
7.76651e-08
-1.21392e-06
5.4866e-08
-1.07419e-06
1.16717e-07
-9.73253e-07
2.74329e-07
-9.73731e-07
5.22617e-07
8.51602e-07
-1.11354e-06
-3.27065e-07
4.18242e-07
-8.40162e-07
5.62119e-07
-1.39263e-06
7.28113e-07
-1.87281e-06
7.30522e-07
-2.19344e-06
5.49494e-07
-2.30922e-06
2.65992e-07
-2.22873e-06
-2.83039e-09
-1.9975e-06
-1.76365e-07
-1.69651e-06
-1.84269e-07
-1.41739e-06
-4.79073e-09
-1.20783e-06
3.13056e-07
7.22917e-07
-1.07915e-06
-5.20473e-07
9.38715e-07
-1.21069e-06
1.25233e-06
-1.92825e-06
1.44568e-06
-2.55104e-06
1.35331e-06
-2.97516e-06
9.7361e-07
-3.146e-06
4.36833e-07
-3.06693e-06
-8.18956e-08
-2.77316e-06
-4.7014e-07
-2.326e-06
-6.3143e-07
-1.79724e-06
-5.33552e-07
-1.31393e-06
-1.70252e-07
2.69412e-07
-8.60424e-07
-5.59162e-07
1.49788e-06
-1.26484e-06
1.95801e-06
-1.97539e-06
2.15623e-06
-2.57393e-06
1.95185e-06
-2.96743e-06
1.36711e-06
-3.13168e-06
6.01087e-07
-3.08921e-06
-1.24371e-07
-2.88047e-06
-6.78875e-07
-2.50824e-06
-1.00366e-06
-1.97126e-06
-1.07053e-06
-1.27586e-06
-8.65649e-07
-4.47096e-07
-5.59355e-07
-3.83842e-07
1.88172e-06
-8.93816e-07
2.46798e-06
-1.38562e-06
2.64804e-06
-1.76964e-06
2.33587e-06
-1.98286e-06
1.58033e-06
-2.04112e-06
6.59345e-07
-1.9949e-06
-1.70583e-07
-1.88156e-06
-7.92217e-07
-1.69996e-06
-1.18526e-06
-1.40636e-06
-1.36414e-06
-9.24305e-07
-1.3477e-06
-1.14211e-06
-2.29288e-07
-4.44409e-08
1.92616e-06
-2.14869e-07
2.63841e-06
-3.48411e-07
2.78158e-06
-4.61333e-07
2.44879e-06
-5.27784e-07
1.64678e-06
-5.32246e-07
6.63807e-07
-4.67694e-07
-2.35135e-07
-3.48039e-07
-9.11872e-07
-2.02992e-07
-1.33031e-06
-3.17036e-08
-1.53543e-06
2.09437e-07
-1.58884e-06
-1.52185e-06
5.89175e-07
4.14563e-07
1.5116e-06
6.41801e-07
2.41117e-06
8.46801e-07
2.57658e-06
9.88274e-07
2.30732e-06
1.05376e-06
1.5813e-06
1.09045e-06
6.27111e-07
1.14931e-06
-2.93996e-07
1.23821e-06
-1.00077e-06
1.35133e-06
-1.44343e-06
1.49929e-06
-1.68338e-06
1.69869e-06
-1.78825e-06
-1.77967e-06
1.95652e-06
4.8755e-07
1.02405e-06
1.25775e-06
1.64097e-06
1.90343e-06
1.9309e-06
2.35227e-06
1.85848e-06
2.62e-06
1.31357e-06
2.77946e-06
4.67645e-07
2.87775e-06
-3.92286e-07
2.93554e-06
-1.05856e-06
2.97651e-06
-1.4844e-06
3.03659e-06
-1.74346e-06
3.1518e-06
-1.90346e-06
3.3413e-06
-1.96917e-06
-1.6405e-07
4.48136e-09
-1.24322e-07
-3.97282e-08
-5.62495e-08
-6.80725e-08
6.53805e-08
-1.2163e-07
2.33802e-07
-1.68422e-07
4.20427e-07
-1.86624e-07
5.79536e-07
-1.59109e-07
6.54884e-07
-7.53483e-08
6.12107e-07
4.27768e-08
4.45046e-07
1.67061e-07
1.93779e-07
2.51267e-07
1.93779e-07
-3.449e-07
1.59028e-07
-5.20694e-07
1.36066e-07
-6.61025e-07
7.22586e-08
-6.9814e-07
-8.45149e-08
-6.24864e-07
-2.41698e-07
-4.56488e-07
-3.55e-07
-2.40174e-07
-3.75424e-07
-3.4504e-08
-2.81018e-07
1.07741e-07
-9.9468e-08
1.22385e-07
1.52417e-07
4.60901e-08
3.27562e-07
2.39869e-07
-8.31307e-07
5.05102e-07
-1.20644e-06
5.11196e-07
-1.50269e-06
3.6851e-07
-1.70255e-06
1.15347e-07
-1.79954e-06
-1.44712e-07
-1.74318e-06
-4.11358e-07
-1.53252e-06
-5.86083e-07
-1.18246e-06
-6.31075e-07
-7.74228e-07
-5.07702e-07
-4.05586e-07
-2.16225e-07
-1.37964e-07
5.99396e-08
1.01905e-07
-1.29422e-06
9.04961e-07
-1.72316e-06
9.40135e-07
-2.11212e-06
7.57473e-07
-2.44243e-06
4.4566e-07
-2.66521e-06
7.80661e-08
-2.75914e-06
-3.17424e-07
-2.65335e-06
-6.91875e-07
-2.29497e-06
-9.89457e-07
-1.67144e-06
-1.13123e-06
-8.65675e-07
-1.02199e-06
-1.98808e-07
-6.06927e-07
-9.6903e-08
-1.3542e-06
1.14563e-06
-1.63156e-06
1.21749e-06
-1.92526e-06
1.05118e-06
-2.22888e-06
7.49276e-07
-2.51088e-06
3.60072e-07
-2.7295e-06
-9.88082e-08
-2.83168e-06
-5.89697e-07
-2.74118e-06
-1.07995e-06
-2.34389e-06
-1.52852e-06
-1.54896e-06
-1.81692e-06
-5.13787e-07
-1.6421e-06
-6.1069e-07
-1.02114e-06
1.08761e-06
-1.01876e-06
1.21512e-06
-1.06568e-06
1.0981e-06
-1.15573e-06
8.39324e-07
-1.29289e-06
4.97231e-07
-1.48979e-06
9.80924e-08
-1.72396e-06
-3.55526e-07
-1.93491e-06
-8.69003e-07
-2.01631e-06
-1.44712e-06
-1.76881e-06
-2.06442e-06
-9.59141e-07
-2.45177e-06
-1.56983e-06
-4.72673e-07
6.99864e-07
-1.7626e-07
9.18705e-07
1.15443e-08
9.10293e-07
1.05465e-07
7.45403e-07
1.23525e-07
4.79171e-07
6.85851e-08
1.53033e-07
-1.00235e-07
-1.86706e-07
-3.69825e-07
-5.99414e-07
-7.19584e-07
-1.09736e-06
-1.03827e-06
-1.74574e-06
-9.16549e-07
-2.57349e-06
-2.48638e-06
1.12077e-07
2.84317e-08
6.54154e-07
3.76628e-07
1.03055e-06
5.33897e-07
1.24935e-06
5.26604e-07
1.33092e-06
3.97605e-07
1.29321e-06
1.90735e-07
1.1668e-06
-6.02916e-08
9.29859e-07
-3.62474e-07
5.9236e-07
-7.59865e-07
1.46756e-07
-1.30014e-06
-2.7041e-07
-2.15632e-06
-2.75679e-06
5.78324e-07
-7.7918e-07
1.32702e-06
-3.72064e-07
1.89204e-06
-3.11321e-08
2.23916e-06
1.79489e-07
2.38198e-06
2.54789e-07
2.35734e-06
2.15368e-07
2.20366e-06
9.33877e-08
1.93685e-06
-9.56659e-08
1.54976e-06
-3.72766e-07
1.05769e-06
-8.08066e-07
4.30784e-07
-1.52942e-06
-2.326e-06
1.14812e-06
-1.33813e-06
1.82685e-06
-1.05079e-06
2.4915e-06
-6.95777e-07
3.00324e-06
-3.32255e-07
3.28338e-06
-2.53497e-08
3.32644e-06
1.72312e-07
3.17465e-06
2.45175e-07
2.87378e-06
2.05202e-07
2.44035e-06
6.06672e-08
1.82239e-06
-1.90111e-07
1.02226e-06
-7.29291e-07
-1.30374e-06
2.2758e-06
-1.65741e-06
2.66136e-06
-1.43636e-06
3.10789e-06
-1.14231e-06
3.56736e-06
-7.91721e-07
3.94493e-06
-4.02922e-07
4.13935e-06
-2.21029e-08
4.10097e-06
2.83553e-07
3.8374e-06
4.68776e-07
3.37016e-06
5.279e-07
2.69805e-06
4.82001e-07
1.69003e-06
2.7873e-07
3.86288e-07
3.5901e-06
-1.90621e-06
3.85598e-06
-1.70224e-06
4.10648e-06
-1.39281e-06
4.34195e-06
-1.02719e-06
4.5746e-06
-6.35568e-07
4.77734e-06
-2.24849e-07
4.86965e-06
1.91249e-07
4.76931e-06
5.69115e-07
4.42609e-06
8.71115e-07
3.76666e-06
1.14143e-06
2.54416e-06
1.50124e-06
2.93044e-06
-4.63643e-08
4.63644e-08
-3.37263e-08
-1.26379e-08
6.33455e-08
-9.70718e-08
2.02611e-07
-1.39265e-07
3.11953e-07
-1.09342e-07
3.53344e-07
-4.13907e-08
3.4129e-07
1.20542e-08
2.76731e-07
6.45594e-08
1.68162e-07
1.08568e-07
3.6623e-08
1.31539e-07
-8.51005e-08
1.21723e-07
7.38494e-08
-1.5895e-07
-4.1099e-08
8.74635e-08
9.69154e-08
-1.50652e-07
2.55317e-07
-2.55474e-07
3.64885e-07
-2.48833e-07
4.28815e-07
-1.73272e-07
4.73924e-07
-8.64997e-08
4.58809e-07
2.71693e-08
3.85723e-07
1.37646e-07
2.70277e-07
2.24014e-07
1.23668e-07
2.78148e-07
-3.48814e-08
2.80273e-07
2.2204e-07
-1.83072e-07
6.99007e-08
1.75629e-08
1.81574e-07
-2.62325e-07
2.41155e-07
-3.15055e-07
2.35143e-07
-2.42821e-07
1.95326e-07
-1.33455e-07
1.25062e-07
-1.62352e-08
6.69184e-08
8.53128e-08
1.9781e-08
1.84783e-07
-3.61861e-08
2.79981e-07
-1.20608e-07
3.6257e-07
-2.51535e-07
4.112e-07
4.41272e-07
-4.70768e-07
2.70722e-08
-9.50927e-09
-1.28215e-08
-2.22431e-07
-1.57185e-07
-1.70692e-07
-3.39512e-07
-6.04943e-08
-4.91569e-07
1.86025e-08
-5.72938e-07
6.51343e-08
-5.92161e-07
1.04536e-07
-5.67394e-07
1.60016e-07
-5.32659e-07
2.45246e-07
-5.31508e-07
3.61419e-07
-6.26069e-07
5.05762e-07
6.92689e-07
-8.77486e-07
-1.04823e-07
9.5314e-08
-3.8334e-07
5.60857e-08
-7.40515e-07
1.86483e-07
-1.06398e-06
2.62967e-07
-1.28477e-06
2.39397e-07
-1.37496e-06
1.55325e-07
-1.34576e-06
7.53305e-08
-1.23083e-06
4.50926e-08
-1.0865e-06
1.00913e-07
-9.77864e-07
2.52784e-07
-9.6907e-07
4.96968e-07
8.24888e-07
-1.10127e-06
-3.26944e-07
4.22258e-07
-8.41947e-07
5.71089e-07
-1.39809e-06
7.42626e-07
-1.88357e-06
7.4845e-07
-2.21036e-06
5.6618e-07
-2.33155e-06
2.76522e-07
-2.25448e-06
-1.74374e-09
-2.02178e-06
-1.87602e-07
-1.71446e-06
-2.06416e-07
-1.4281e-06
-3.35676e-08
-1.20948e-06
2.78342e-07
6.91221e-07
-1.07581e-06
-5.20382e-07
9.4264e-07
-1.21107e-06
1.26178e-06
-1.93033e-06
1.46189e-06
-2.55652e-06
1.37464e-06
-2.98524e-06
9.94901e-07
-3.16092e-06
4.52207e-07
-3.08653e-06
-7.6135e-08
-2.79677e-06
-4.77357e-07
-2.35096e-06
-6.52231e-07
-1.81965e-06
-5.64878e-07
-1.32298e-06
-2.1833e-07
2.3548e-07
-8.67238e-07
-5.5855e-07
1.50119e-06
-1.26287e-06
1.96609e-06
-1.97275e-06
2.17177e-06
-2.57152e-06
1.9734e-06
-2.96572e-06
1.3891e-06
-3.13091e-06
6.17393e-07
-3.09016e-06
-1.16887e-07
-2.88559e-06
-6.81929e-07
-2.5197e-06
-1.01811e-06
-1.98746e-06
-1.09712e-06
-1.3011e-06
-9.04698e-07
-4.87095e-07
-5.7852e-07
-3.82876e-07
1.88407e-06
-8.90792e-07
2.47401e-06
-1.38077e-06
2.66175e-06
-1.76358e-06
2.35622e-06
-1.97543e-06
1.60095e-06
-2.03176e-06
6.73727e-07
-1.9837e-06
-1.64944e-07
-1.87028e-06
-7.95349e-07
-1.69175e-06
-1.19665e-06
-1.40581e-06
-1.38306e-06
-9.36561e-07
-1.37394e-06
-1.17264e-06
-2.51012e-07
-4.33083e-08
1.92737e-06
-2.11033e-07
2.64173e-06
-3.4176e-07
2.79248e-06
-4.52492e-07
2.46695e-06
-5.17371e-07
1.66582e-06
-5.21567e-07
6.77922e-07
-4.56929e-07
-2.29581e-07
-3.36601e-07
-9.15677e-07
-1.91313e-07
-1.34193e-06
-2.21885e-08
-1.55219e-06
2.12337e-07
-1.60847e-06
-1.54259e-06
5.82287e-07
4.16461e-07
1.51091e-06
6.47195e-07
2.411e-06
8.55519e-07
2.58415e-06
1.00031e-06
2.32216e-06
1.0676e-06
1.59854e-06
1.10461e-06
6.40906e-07
1.1627e-06
-2.87665e-07
1.25067e-06
-1.00366e-06
1.36217e-06
-1.45343e-06
1.5073e-06
-1.69731e-06
1.70283e-06
-1.804e-06
-1.796e-06
1.95624e-06
4.92163e-07
1.01875e-06
1.26537e-06
1.6378e-06
1.9137e-06
1.93581e-06
2.36573e-06
1.87013e-06
2.63521e-06
1.32907e-06
2.79541e-06
4.80702e-07
2.89355e-06
-3.8581e-07
2.95063e-06
-1.06073e-06
2.98975e-06
-1.49256e-06
3.04674e-06
-1.75429e-06
3.15786e-06
-1.91512e-06
3.343e-06
-1.98114e-06
-1.63777e-07
4.82742e-09
-1.22745e-07
-4.10322e-08
-5.30515e-08
-6.96936e-08
7.01076e-08
-1.23159e-07
2.39674e-07
-1.69567e-07
4.26625e-07
-1.86951e-07
5.85184e-07
-1.58559e-07
6.59578e-07
-7.43945e-08
6.15676e-07
4.39024e-08
4.47287e-07
1.68389e-07
1.94669e-07
2.52618e-07
1.94669e-07
-3.33128e-07
1.54883e-07
-5.04129e-07
1.29969e-07
-6.41926e-07
6.8103e-08
-6.78147e-07
-8.69387e-08
-6.05244e-07
-2.42469e-07
-4.37621e-07
-3.54574e-07
-2.23081e-07
-3.73099e-07
-2.06217e-08
-2.76854e-07
1.18829e-07
-9.55485e-08
1.28752e-07
1.58467e-07
4.85054e-08
3.32864e-07
2.43174e-07
-8.09171e-07
4.93286e-07
-1.18079e-06
5.01587e-07
-1.47516e-06
3.6247e-07
-1.67337e-06
1.11277e-07
-1.76898e-06
-1.46859e-07
-1.71266e-06
-4.10891e-07
-1.50398e-06
-5.81782e-07
-1.15857e-06
-6.22265e-07
-7.59241e-07
-4.94879e-07
-4.00358e-07
-2.00416e-07
-1.37986e-07
7.04914e-08
1.05189e-07
-1.27137e-06
8.87166e-07
-1.69857e-06
9.28795e-07
-2.08693e-06
7.50832e-07
-2.41686e-06
4.41206e-07
-2.63966e-06
7.59359e-08
-2.73396e-06
-3.16588e-07
-2.62871e-06
-6.87032e-07
-2.27166e-06
-9.7932e-07
-1.65213e-06
-1.11441e-06
-8.53325e-07
-9.99217e-07
-1.96474e-07
-5.86359e-07
-9.12858e-08
-1.33916e-06
1.12505e-06
-1.61741e-06
1.20705e-06
-1.91374e-06
1.04716e-06
-2.22102e-06
7.48485e-07
-2.50655e-06
3.61469e-07
-2.72723e-06
-9.59071e-08
-2.82899e-06
-5.85272e-07
-2.73541e-06
-1.0729e-06
-2.33333e-06
-1.51649e-06
-1.53538e-06
-1.79717e-06
-5.05053e-07
-1.61668e-06
-5.96339e-07
-1.01653e-06
1.06577e-06
-1.01575e-06
1.20627e-06
-1.06643e-06
1.09784e-06
-1.16187e-06
8.43921e-07
-1.30485e-06
5.04457e-07
-1.50643e-06
1.0567e-07
-1.7427e-06
-3.49008e-07
-1.95191e-06
-8.63692e-07
-2.02696e-06
-1.44144e-06
-1.7692e-06
-2.05493e-06
-9.52368e-07
-2.43351e-06
-1.54871e-06
-4.77677e-07
6.76214e-07
-1.80563e-07
9.09153e-07
6.05057e-09
9.11227e-07
9.72403e-08
7.52731e-07
1.12167e-07
4.8953e-07
5.43357e-08
1.63501e-07
-1.16955e-07
-1.77717e-07
-3.88846e-07
-5.91801e-07
-7.38739e-07
-1.09155e-06
-1.05262e-06
-1.74105e-06
-9.20648e-07
-2.56548e-06
-2.46935e-06
9.80827e-08
-3.8867e-10
6.449e-07
3.62335e-07
1.02401e-06
5.32114e-07
1.24373e-06
5.33011e-07
1.32513e-06
4.08136e-07
1.28667e-06
2.0196e-07
1.15932e-06
-5.03704e-08
9.21893e-07
-3.54371e-07
5.82997e-07
-7.52649e-07
1.35828e-07
-1.29389e-06
-2.78469e-07
-2.15118e-06
-2.74782e-06
5.56087e-07
-8.07487e-07
1.31072e-06
-3.92302e-07
1.88246e-06
-3.96243e-08
2.23468e-06
1.80792e-07
2.38046e-06
2.62358e-07
2.35684e-06
2.25576e-07
2.20291e-06
1.03564e-07
1.93534e-06
-8.67989e-08
1.5478e-06
-3.65117e-07
1.05521e-06
-8.01296e-07
4.27437e-07
-1.52341e-06
-2.32039e-06
1.13332e-06
-1.35852e-06
1.8095e-06
-1.06848e-06
2.47763e-06
-7.07754e-07
2.99548e-06
-3.37059e-07
3.28133e-06
-2.34884e-08
3.32812e-06
1.78787e-07
3.17788e-06
2.53797e-07
2.87691e-06
2.14178e-07
2.4427e-06
6.90942e-08
1.823e-06
-1.81598e-07
1.0217e-06
-7.22104e-07
-1.29869e-06
2.27081e-06
-1.6731e-06
2.65227e-06
-1.44993e-06
3.09717e-06
-1.15265e-06
3.55834e-06
-7.98226e-07
3.93998e-06
-4.05133e-07
4.1388e-06
-2.00376e-08
4.1036e-06
2.89e-07
3.8415e-06
4.76275e-07
3.3742e-06
5.36395e-07
2.70105e-06
4.91559e-07
1.69079e-06
2.88151e-07
3.921e-07
3.588e-06
-1.91811e-06
3.85116e-06
-1.71309e-06
4.10002e-06
-1.40152e-06
4.33505e-06
-1.03325e-06
4.5689e-06
-6.38984e-07
4.77435e-06
-2.25484e-07
4.86965e-06
1.93697e-07
4.77142e-06
5.74501e-07
4.42907e-06
8.78746e-07
3.76991e-06
1.15072e-06
2.54673e-06
1.51133e-06
2.93883e-06
-4.38489e-08
4.38489e-08
-3.65967e-08
-7.25234e-09
6.95064e-08
-1.06103e-07
2.13592e-07
-1.44086e-07
3.23634e-07
-1.10042e-07
3.63326e-07
-3.96927e-08
3.49094e-07
1.42325e-08
2.81802e-07
6.72915e-08
1.70505e-07
1.11297e-07
3.6779e-08
1.33726e-07
-8.60922e-08
1.22871e-07
7.36487e-08
-1.59741e-07
-3.73363e-08
8.11851e-08
1.07822e-07
-1.5241e-07
2.63538e-07
-2.61819e-07
3.7218e-07
-2.52728e-07
4.35559e-07
-1.73422e-07
4.80487e-07
-8.46207e-08
4.62743e-07
3.19764e-08
3.87354e-07
1.42681e-07
2.69413e-07
2.29238e-07
1.20167e-07
2.82972e-07
-4.06187e-08
2.83657e-07
2.24083e-07
-1.91053e-07
6.89926e-08
1.21924e-08
1.83985e-07
-2.67403e-07
2.43083e-07
-3.20917e-07
2.37507e-07
-2.47152e-07
1.99068e-07
-1.34982e-07
1.29195e-07
-1.47477e-08
7.15913e-08
8.95797e-08
2.32253e-08
1.91047e-07
-3.55057e-08
2.87969e-07
-1.23585e-07
3.71052e-07
-2.59521e-07
4.19593e-07
4.51102e-07
-4.8654e-07
2.60472e-08
-1.38548e-08
-1.309e-08
-2.28266e-07
-1.56319e-07
-1.77688e-07
-3.35123e-07
-6.83475e-08
-4.83166e-07
1.30604e-08
-5.61764e-07
6.38498e-08
-5.80257e-07
1.08073e-07
-5.57143e-07
1.67933e-07
-5.26056e-07
2.56881e-07
-5.30838e-07
3.75834e-07
-6.34068e-07
5.22823e-07
7.12748e-07
-8.95713e-07
-1.05506e-07
9.16513e-08
-3.82831e-07
4.90587e-08
-7.35912e-07
1.75394e-07
-1.05429e-06
2.50034e-07
-1.26985e-06
2.28613e-07
-1.35607e-06
1.50076e-07
-1.32571e-06
7.7713e-08
-1.21292e-06
5.51414e-08
-1.07331e-06
1.17272e-07
-9.72687e-07
2.75208e-07
-9.73735e-07
5.23871e-07
8.53236e-07
-1.11422e-06
-3.26785e-07
4.18436e-07
-8.39533e-07
5.61807e-07
-1.3917e-06
7.27564e-07
-1.87165e-06
7.29977e-07
-2.19208e-06
5.49048e-07
-2.30772e-06
2.6571e-07
-2.22711e-06
-2.89456e-09
-1.99588e-06
-1.76082e-07
-1.69507e-06
-1.83538e-07
-1.41626e-06
-3.60591e-09
-1.20715e-06
3.14758e-07
7.25013e-07
-1.07892e-06
-5.20134e-07
9.3857e-07
-1.21005e-06
1.25172e-06
-1.92751e-06
1.44502e-06
-2.55035e-06
1.35282e-06
-2.97453e-06
9.73232e-07
-3.14535e-06
4.36527e-07
-3.06611e-06
-8.21358e-08
-2.77206e-06
-4.70128e-07
-2.32469e-06
-6.30905e-07
-1.79597e-06
-5.32326e-07
-1.31298e-06
-1.68233e-07
2.71703e-07
-8.59672e-07
-5.58926e-07
1.4975e-06
-1.26455e-06
1.95734e-06
-1.97544e-06
2.15591e-06
-2.57457e-06
1.95195e-06
-2.96868e-06
1.36734e-06
-3.1333e-06
6.01147e-07
-3.09082e-06
-1.24621e-07
-2.88169e-06
-6.79257e-07
-2.50877e-06
-1.00382e-06
-1.97105e-06
-1.07005e-06
-1.27502e-06
-8.64259e-07
-4.44878e-07
-5.58443e-07
-3.83737e-07
1.88123e-06
-8.93847e-07
2.46745e-06
-1.38623e-06
2.64829e-06
-1.77111e-06
2.33683e-06
-1.98518e-06
1.58141e-06
-2.04402e-06
6.59984e-07
-1.99804e-06
-1.70604e-07
-1.88462e-06
-7.92675e-07
-1.70266e-06
-1.18578e-06
-1.40831e-06
-1.3644e-06
-9.25169e-07
-1.3474e-06
-1.14105e-06
-2.28994e-07
-4.4441e-08
1.92567e-06
-2.1487e-07
2.63788e-06
-3.4891e-07
2.78233e-06
-4.62611e-07
2.45053e-06
-5.29769e-07
1.64857e-06
-5.34696e-07
6.6491e-07
-4.70297e-07
-2.35002e-07
-3.50647e-07
-9.12325e-07
-2.05612e-07
-1.33081e-06
-3.432e-08
-1.53569e-06
2.07109e-07
-1.58883e-06
-1.52165e-06
5.87704e-07
4.14544e-07
1.51113e-06
6.42153e-07
2.41027e-06
8.4702e-07
2.57747e-06
9.88154e-07
2.3094e-06
1.05319e-06
1.58353e-06
1.08951e-06
6.28591e-07
1.14806e-06
-2.93551e-07
1.23676e-06
-1.00103e-06
1.34978e-06
-1.44383e-06
1.4977e-06
-1.68361e-06
1.6971e-06
-1.78823e-06
-1.77948e-06
1.95494e-06
4.8858e-07
1.02255e-06
1.25911e-06
1.63975e-06
1.90482e-06
1.93175e-06
2.35368e-06
1.86054e-06
2.62119e-06
1.31602e-06
2.78026e-06
4.69524e-07
2.87801e-06
-3.91311e-07
2.93529e-06
-1.0583e-06
2.97588e-06
-1.48442e-06
3.03577e-06
-1.74351e-06
3.151e-06
-1.90346e-06
3.34058e-06
-1.96906e-06
-1.64026e-07
4.28449e-09
-1.24217e-07
-3.9809e-08
-5.60704e-08
-6.81461e-08
6.57295e-08
-1.218e-07
2.34266e-07
-1.68537e-07
4.20936e-07
-1.8667e-07
5.79985e-07
-1.59049e-07
6.55173e-07
-7.51881e-08
6.1222e-07
4.29532e-08
4.45046e-07
1.67174e-07
1.93774e-07
2.51272e-07
1.93774e-07
-3.45672e-07
1.58903e-07
-5.2161e-07
1.36129e-07
-6.619e-07
7.2144e-08
-6.98875e-07
-8.48257e-08
-6.25431e-07
-2.4198e-07
-4.56897e-07
-3.55205e-07
-2.40439e-07
-3.75506e-07
-3.46651e-08
-2.80962e-07
1.07621e-07
-9.93332e-08
1.22294e-07
1.52501e-07
4.60449e-08
3.27521e-07
2.39819e-07
-8.33158e-07
5.05521e-07
-1.20851e-06
5.1148e-07
-1.50484e-06
3.68479e-07
-1.70482e-06
1.15147e-07
-1.80179e-06
-1.4501e-07
-1.74524e-06
-4.11753e-07
-1.53422e-06
-5.86527e-07
-1.18366e-06
-6.31519e-07
-7.74875e-07
-5.08119e-07
-4.0577e-07
-2.16603e-07
-1.37959e-07
5.97093e-08
1.0186e-07
-1.29621e-06
9.06013e-07
-1.72549e-06
9.40762e-07
-2.1147e-06
7.57696e-07
-2.4452e-06
4.4564e-07
-2.66797e-06
7.77642e-08
-2.76173e-06
-3.17999e-07
-2.65558e-06
-6.92676e-07
-2.29672e-06
-9.90377e-07
-1.6726e-06
-1.13224e-06
-8.66181e-07
-1.02302e-06
-1.98826e-07
-6.07646e-07
-9.69659e-08
-1.35538e-06
1.14718e-06
-1.63304e-06
1.21841e-06
-1.92691e-06
1.05157e-06
-2.23051e-06
7.49239e-07
-2.51233e-06
3.59586e-07
-2.73069e-06
-9.96368e-08
-2.83267e-06
-5.90696e-07
-2.74206e-06
-1.08099e-06
-2.34472e-06
-1.52958e-06
-1.54967e-06
-1.81807e-06
-5.14105e-07
-1.64321e-06
-6.1107e-07
-1.02126e-06
1.08951e-06
-1.01906e-06
1.21622e-06
-1.06595e-06
1.09846e-06
-1.15578e-06
8.39067e-07
-1.29263e-06
4.96434e-07
-1.48926e-06
9.69926e-08
-1.72319e-06
-3.5677e-07
-1.93417e-06
-8.70002e-07
-2.01581e-06
-1.44793e-06
-1.76876e-06
-2.06513e-06
-9.59411e-07
-2.45257e-06
-1.57048e-06
-4.72113e-07
7.01949e-07
-1.75859e-07
9.19965e-07
1.19613e-08
9.10639e-07
1.06067e-07
7.44962e-07
1.24361e-07
4.7814e-07
6.96206e-08
1.51733e-07
-9.92477e-08
-1.87902e-07
-3.68777e-07
-6.00473e-07
-7.18589e-07
-1.09812e-06
-1.03753e-06
-1.74618e-06
-9.16322e-07
-2.57377e-06
-2.4868e-06
1.12872e-07
3.06339e-08
6.54712e-07
3.78125e-07
1.03094e-06
5.34415e-07
1.24966e-06
5.26238e-07
1.3312e-06
3.96604e-07
1.29348e-06
1.89444e-07
1.16713e-06
-6.1551e-08
9.30176e-07
-3.63516e-07
5.92653e-07
-7.60597e-07
1.47067e-07
-1.3006e-06
-2.70164e-07
-2.15654e-06
-2.75697e-06
5.79222e-07
-7.77582e-07
1.32779e-06
-3.70439e-07
1.89236e-06
-3.01626e-08
2.239e-06
1.796e-07
2.38145e-06
2.54157e-07
2.35661e-06
2.14279e-07
2.20289e-06
9.21711e-08
1.93613e-06
-9.67574e-08
1.54916e-06
-3.73622e-07
1.05726e-06
-8.08705e-07
4.30629e-07
-1.52991e-06
-2.32634e-06
1.14772e-06
-1.3376e-06
1.82726e-06
-1.04997e-06
2.49198e-06
-6.94891e-07
3.00322e-06
-3.31633e-07
3.28262e-06
-2.52472e-08
3.32505e-06
1.71852e-07
3.17291e-06
2.44315e-07
2.87198e-06
2.04164e-07
2.43872e-06
5.96379e-08
1.82135e-06
-1.91327e-07
1.0218e-06
-7.30364e-07
-1.30454e-06
2.27443e-06
-1.6571e-06
2.66047e-06
-1.43601e-06
3.10753e-06
-1.14195e-06
3.5672e-06
-7.91301e-07
3.94446e-06
-4.0251e-07
4.13821e-06
-2.18978e-08
4.09914e-06
2.83381e-07
3.83512e-06
4.68184e-07
3.36786e-06
5.26902e-07
2.69612e-06
4.80413e-07
1.68902e-06
2.76734e-07
3.84486e-07
3.5894e-06
-1.90591e-06
3.85516e-06
-1.70178e-06
4.10554e-06
-1.39232e-06
4.34103e-06
-1.0268e-06
4.57376e-06
-6.35236e-07
4.77636e-06
-2.24503e-07
4.86823e-06
1.9151e-07
4.76735e-06
5.69066e-07
4.42373e-06
8.70525e-07
3.76408e-06
1.14006e-06
2.54182e-06
1.49899e-06
2.92631e-06
3.65985e-06
2.22233e-06
-4.86596e-06
3.42912e-06
1.86738e-06
3.60099e-06
1.76226e-06
3.97041e-06
1.49811e-06
4.33182e-06
9.6489e-07
4.57797e-06
2.32679e-07
4.69081e-06
-4.99323e-07
4.69708e-06
-1.06639e-06
4.66051e-06
-1.4548e-06
4.6374e-06
-1.73028e-06
4.66266e-06
-1.9402e-06
-2.0689e-06
4.75002e-06
6.44631e-06
2.40857e-06
-6.63254e-06
6.22812e-06
2.08557e-06
6.1769e-06
1.81349e-06
6.27606e-06
1.39895e-06
6.42573e-06
8.15222e-07
6.49969e-06
1.58725e-07
6.46475e-06
-4.64385e-07
6.3542e-06
-9.55833e-07
6.23483e-06
-1.33544e-06
6.15325e-06
-1.64869e-06
6.12913e-06
-1.91609e-06
-2.0966e-06
6.15684e-06
7.85463e-06
2.1714e-06
-7.61747e-06
7.9571e-06
1.9831e-06
8.04498e-06
1.72561e-06
8.10562e-06
1.3383e-06
8.10773e-06
8.13114e-07
8.03207e-06
2.34388e-07
7.88053e-06
-3.12851e-07
7.70209e-06
-7.77395e-07
7.54504e-06
-1.17838e-06
7.44572e-06
-1.54937e-06
7.42e-06
-1.89036e-06
-2.12287e-06
7.44627e-06
8.51286e-06
-8.21149e-06
8.74116e-06
8.92817e-06
9.04419e-06
9.06285e-06
8.98657e-06
8.84321e-06
8.67773e-06
8.53219e-06
8.43726e-06
8.42773e-06
8.5072e-06
4.89062e-06
-2.05945e-06
5.05902e-06
-1.88248e-06
5.22259e-06