/*--------------------------------*- C++ -*----------------------------------*\
| =========                 |                                                 |
| \\      /  F ield         | OpenFOAM: The Open Source CFD Toolbox           |
|  \\    /   O peration     | Version:  v1806                                 |
|   \\  /    A nd           | Web:      www.OpenFOAM.com                      |
|    \\/     M anipulation  |                                                 |
\*---------------------------------------------------------------------------*/
FoamFile
{
    version     2.0;
    format      ascii;
    class       volScalarField;
    location    "3";
    object      p;
}
// * * * * * * * * * * * * * * * * * * * * * * * * * * * * * * * * * * * * * //

dimensions      [0 2 -2 0 0 0 0];


internalField   nonuniform List<scalar> 
768
(
-0.0457094
-0.0458287
-0.0458911
-0.0458719
-0.0457489
-0.0456032
-0.0454714
-0.0453567
-0.045259
-0.0451651
-0.0450492
-0.0449006
-0.0426896
-0.042771
-0.0428639
-0.0429413
-0.0429992
-0.0430357
-0.0430564
-0.0430762
-0.0431037
-0.0431215
-0.043064
-0.0428083
-0.0409127
-0.0410004
-0.0411424
-0.0412833
-0.0413824
-0.041433
-0.0414378
-0.041402
-0.0413353
-0.0412106
-0.0409389
-0.0404351
-0.038453
-0.0385658
-0.0387948
-0.0389908
-0.0391108
-0.039147
-0.0390955
-0.0389503
-0.0387021
-0.0383271
-0.0377778
-0.0370048
-0.0358961
-0.0360491
-0.0363107
-0.0365111
-0.0366061
-0.036584
-0.0364301
-0.036121
-0.0356231
-0.0349219
-0.0340006
-0.0329258
-0.0331242
-0.0332725
-0.0335078
-0.0336587
-0.0336875
-0.033577
-0.0332987
-0.032803
-0.0320506
-0.0310419
-0.0298295
-0.028586
-0.0301671
-0.0302301
-0.03035
-0.0303863
-0.030302
-0.0300741
-0.0296709
-0.0290242
-0.0280614
-0.0268318
-0.0254528
-0.0241705
-0.0270387
-0.0269211
-0.0268343
-0.0266701
-0.0264549
-0.026057
-0.025512
-0.024738
-0.0237225
-0.0224194
-0.0210236
-0.0198088
-0.023764
-0.0233896
-0.0230553
-0.0226778
-0.0222637
-0.0216531
-0.0209315
-0.0200644
-0.0190276
-0.0179094
-0.0166705
-0.0156346
-0.0203764
-0.0197062
-0.0191745
-0.0186526
-0.0180226
-0.0172749
-0.0163461
-0.0153242
-0.0142956
-0.0133062
-0.0124851
-0.0117553
-0.016824
-0.0159258
-0.0154492
-0.0150122
-0.0143618
-0.0135184
-0.0124018
-0.0111737
-0.010019
-0.00908392
-0.00843576
-0.00816473
-0.0132397
-0.0124619
-0.0122918
-0.0121061
-0.0115799
-0.0106897
-0.00948476
-0.00812491
-0.0068182
-0.0057684
-0.00511977
-0.00491289
-0.0447246
-0.0445458
-0.0443894
-0.0442711
-0.0442112
-0.0442411
-0.0444027
-0.044709
-0.0450703
-0.0452638
-0.0451956
-0.0449147
-0.0423355
-0.0417619
-0.0412261
-0.0408262
-0.0406249
-0.0406773
-0.0410814
-0.0417781
-0.0425114
-0.0429656
-0.0429454
-0.0425527
-0.0396886
-0.0388455
-0.0381145
-0.0376301
-0.0374612
-0.0376537
-0.0381226
-0.038935
-0.0399514
-0.0407825
-0.0409487
-0.0406121
-0.0360658
-0.0351438
-0.0344085
-0.0339448
-0.0337839
-0.0339286
-0.0344188
-0.0352469
-0.0364072
-0.037665
-0.0384044
-0.038364
-0.0318776
-0.0310398
-0.0304775
-0.0301628
-0.030062
-0.0301866
-0.0305895
-0.0313346
-0.0324663
-0.033946
-0.0353151
-0.0357685
-0.0275533
-0.0268681
-0.0264817
-0.0262856
-0.0262334
-0.0263481
-0.0266937
-0.0273417
-0.0283531
-0.0297536
-0.0314967
-0.0327473
-0.0232405
-0.022742
-0.0225377
-0.0224633
-0.0224694
-0.0225957
-0.022905
-0.0234705
-0.0243446
-0.0255118
-0.0271763
-0.0292566
-0.0190333
-0.0187376
-0.0187284
-0.0187945
-0.0188719
-0.0190118
-0.0192959
-0.0198024
-0.0205758
-0.0215834
-0.0229923
-0.0253693
-0.0150507
-0.0149479
-0.0151213
-0.0153351
-0.0155038
-0.0156768
-0.0159482
-0.0164015
-0.0170771
-0.0179525
-0.0191046
-0.021168
-0.011402
-0.0114716
-0.0117962
-0.0121514
-0.0124293
-0.0126596
-0.0129352
-0.0133409
-0.0139006
-0.0145721
-0.0152775
-0.0166143
-0.00811486
-0.00836728
-0.0088189
-0.00929532
-0.00968642
-0.00999606
-0.0103048
-0.0106861
-0.0111168
-0.0113727
-0.0115716
-0.0116469
-0.00511877
-0.00556145
-0.00615012
-0.00674382
-0.0072523
-0.0076702
-0.00806354
-0.00849348
-0.00890633
-0.00899122
-0.0083258
-0.00668589
-0.0459672
-0.0458798
-0.0457765
-0.0456778
-0.0455743
-0.0454628
-0.0453441
-0.0452345
-0.0451411
-0.0450508
-0.0449261
-0.0447667
-0.0427846
-0.0427977
-0.0428661
-0.0429226
-0.0429573
-0.0429765
-0.0429956
-0.0430205
-0.0430535
-0.0430652
-0.0429825
-0.0426824
-0.0410252
-0.04108
-0.041188
-0.0412947
-0.0413668
-0.0413991
-0.0413959
-0.0413623
-0.0412884
-0.041148
-0.0408424
-0.0402837
-0.0384813
-0.0385916
-0.0388113
-0.0389885
-0.0390876
-0.0391047
-0.0390368
-0.0388744
-0.0386154
-0.0382201
-0.0376335
-0.0368109
-0.0359153
-0.0360665
-0.0363147
-0.0364952
-0.0365682
-0.0365234
-0.0363449
-0.0360075
-0.0354829
-0.0347468
-0.0337871
-0.0326875
-0.0331285
-0.0332746
-0.0334978
-0.0336306
-0.0336385
-0.0335032
-0.0331932
-0.0326568
-0.0318638
-0.0308138
-0.0295738
-0.0283324
-0.0301618
-0.0302224
-0.0303325
-0.0303536
-0.0302513
-0.0299995
-0.0295599
-0.0288569
-0.0278516
-0.0265849
-0.0251934
-0.0239329
-0.027023
-0.0269044
-0.0268111
-0.0266365
-0.0264088
-0.0259922
-0.0254199
-0.0246113
-0.0235221
-0.0221924
-0.0207959
-0.0196132
-0.0237357
-0.0233617
-0.0230221
-0.0226366
-0.0222128
-0.0215946
-0.0208603
-0.0199743
-0.0189186
-0.0177325
-0.0165019
-0.0155007
-0.0203325
-0.019663
-0.0191261
-0.018599
-0.0179637
-0.0172144
-0.0162865
-0.015267
-0.0142421
-0.0132612
-0.0123907
-0.0116932
-0.016762
-0.0158657
-0.0153838
-0.0149453
-0.014295
-0.0134537
-0.0123475
-0.0111379
-0.0100071
-0.00909733
-0.00847652
-0.00817961
-0.0131591
-0.0123861
-0.0122099
-0.0120268
-0.0115039
-0.0106229
-0.00943657
-0.00810473
-0.00683135
-0.00581468
-0.00519239
-0.00499482
-0.044581
-0.044396
-0.0442351
-0.044112
-0.0440471
-0.0440774
-0.0442482
-0.0445738
-0.0449627
-0.0451629
-0.0450933
-0.0448073
-0.0421688
-0.0415721
-0.0410284
-0.0406276
-0.0404305
-0.0404965
-0.0409184
-0.0416452
-0.0423999
-0.0428749
-0.0428555
-0.0424543
-0.0394843
-0.0386164
-0.0378896
-0.037423
-0.0372693
-0.0374616
-0.0379563
-0.0387921
-0.0398286
-0.0406749
-0.0408489
-0.0405099
-0.0358381
-0.0349127
-0.0341953
-0.0337538
-0.0336124
-0.0337761
-0.0342717
-0.0351093
-0.0362806
-0.037551
-0.0383011
-0.0382629
-0.0316424
-0.0308268
-0.0302873
-0.0299875
-0.0298965
-0.0300319
-0.0304427
-0.0311961
-0.0323356
-0.0338226
-0.0352038
-0.0356658
-0.0273295
-0.0266777
-0.0263099
-0.0261208
-0.0260734
-0.0261948
-0.0265482
-0.0272047
-0.0282227
-0.0296227
-0.0313679
-0.0326363
-0.023046
-0.0225815
-0.0223881
-0.0223122
-0.0223171
-0.0224466
-0.022763
-0.0233375
-0.0242192
-0.025384
-0.0270392
-0.0291386
-0.0188839
-0.0186174
-0.0186093
-0.018664
-0.0187333
-0.0188721
-0.0191607
-0.0196747
-0.0204557
-0.0214648
-0.0228677
-0.0252556
-0.0149572
-0.0148752
-0.0150407
-0.0152345
-0.0153881
-0.0155551
-0.0158268
-0.0162837
-0.0169628
-0.0178384
-0.0189933
-0.021074
-0.0113678
-0.011447
-0.0117573
-0.0120868
-0.0123434
-0.0125618
-0.0128332
-0.0132383
-0.0137963
-0.0144557
-0.0151751
-0.0165413
-0.00813894
-0.00838821
-0.00881997
-0.00926769
-0.00963287
-0.00992549
-0.0102258
-0.0106041
-0.0110342
-0.0112967
-0.0114876
-0.0115847
-0.00519286
-0.0056237
-0.00618821
-0.00675109
-0.00723118
-0.00762853
-0.00800985
-0.00843387
-0.00884343
-0.0089279
-0.00827204
-0.00665702
-0.00913782
-0.00979814
-0.0103034
-0.0102579
-0.00969666
-0.00877954
-0.00756847
-0.00618775
-0.00482462
-0.00367448
-0.00289078
-0.00253686
-0.00840869
-0.00938706
-0.00941789
-0.00906241
-0.00840046
-0.00745723
-0.00626676
-0.00492603
-0.00360213
-0.00248045
-0.00167973
-0.00119164
-0.00792087
-0.00835143
-0.00837792
-0.00804963
-0.00743411
-0.00654046
-0.0054108
-0.00413836
-0.00287898
-0.00183348
-0.00110594
-0.000567425
-0.00757004
-0.00779003
-0.00777333
-0.00744985
-0.0068482
-0.00598968
-0.00491705
-0.00371181
-0.00251022
-0.00156371
-0.00100288
-0.000421393
-0.00261065
-0.00306685
-0.00373332
-0.00443711
-0.00507556
-0.00563953
-0.00618363
-0.00675523
-0.00730189
-0.0076193
-0.00756825
-0.00748416
-0.00101204
-0.00124238
-0.0017833
-0.00249221
-0.00323243
-0.00395601
-0.00468919
-0.0054589
-0.00621654
-0.00681512
-0.00715796
-0.00735659
-0.000222947
-0.000304567
-0.000689121
-0.00128187
-0.00200223
-0.00280805
-0.00368746
-0.00462503
-0.00555047
-0.00632665
-0.00685754
-0.0071986
0.000183737
0.000115101
-0.00022668
-0.000773305
-0.00147069
-0.00229802
-0.00323558
-0.00424948
-0.00525196
-0.00610797
-0.00671659
-0.00708936
-0.00904524
-0.00969143
-0.0101943
-0.010158
-0.00961162
-0.00871236
-0.00752736
-0.00617979
-0.00485197
-0.00373398
-0.0029751
-0.00263496
-0.00827013
-0.00924275
-0.00928878
-0.00895005
-0.00830954
-0.00739227
-0.00623372
-0.00492839
-0.00363813
-0.00254331
-0.00176164
-0.00128716
-0.00777346
-0.00821117
-0.00824202
-0.00792945
-0.00734
-0.00647868
-0.00538458
-0.00414711
-0.00291734
-0.00189189
-0.00117717
-0.000649619
-0.00742255
-0.00764944
-0.00764112
-0.00733559
-0.00676233
-0.00593844
-0.00490135
-0.00372741
-0.00254866
-0.00161124
-0.00105241
-0.0004844
-0.00271014
-0.00315701
-0.00380098
-0.0044752
-0.00508523
-0.00562692
-0.00615613
-0.00671882
-0.00726029
-0.00757729
-0.00754631
-0.00751059
-0.00111211
-0.00133905
-0.00186366
-0.00254909
-0.00326492
-0.00396736
-0.00468476
-0.0054442
-0.00619692
-0.00679844
-0.00716423
-0.00742141
-0.000314753
-0.000395417
-0.000770093
-0.00134549
-0.00204611
-0.00283388
-0.00369919
-0.00462805
-0.00555197
-0.00633727
-0.00689234
-0.0072791
0.000100264
2.85873e-05
-0.000306546
-0.000840606
-0.0015224
-0.00233477
-0.00326121
-0.00427076
-0.00527898
-0.00615434
-0.00679145
-0.00717956
)
;

boundaryField
{
    rotor
    {
        type            zeroGradient;
    }
    stator
    {
        type            zeroGradient;
    }
    AMI1
    {
        type            cyclicAMI;
        value           nonuniform List<scalar> 
48
(
-0.00742463
-0.00757065
-0.00750971
-0.00717914
-0.00659854
-0.00578421
-0.00477222
-0.0036355
-0.00249345
-0.00158266
-0.00104039
-0.000479208
0.000129301
0.000132242
-0.000186177
-0.000707745
-0.00139057
-0.00221025
-0.00314248
-0.00414805
-0.00514012
-0.00599218
-0.00660615
-0.00698134
-0.00727996
-0.00743446
-0.00738318
-0.00707023
-0.00651647
-0.00573508
-0.00475729
-0.00365118
-0.00253151
-0.00162856
-0.00108627
-0.000537829
4.99269e-05
4.49737e-05
-0.000265677
-0.000776484
-0.00144537
-0.00225146
-0.00317401
-0.00417688
-0.005176
-0.0060478
-0.00669214
-0.007082
)
;
    }
    AMI2
    {
        type            cyclicAMI;
        value           nonuniform 0();
    }
    front
    {
        type            empty;
    }
    back
    {
        type            empty;
    }
    procBoundary2to3
    {
        type            processor;
        value           nonuniform List<scalar> 8(-0.00916853 -0.00841907 -0.00791509 -0.00755438 -0.00757452 -0.00747973 -0.0073354 -0.0072306);
    }
}


// ************************************************************************* //
