/*--------------------------------*- C++ -*----------------------------------*\
| =========                 |                                                 |
| \\      /  F ield         | OpenFOAM: The Open Source CFD Toolbox           |
|  \\    /   O peration     | Version:  v1806                                 |
|   \\  /    A nd           | Web:      www.OpenFOAM.com                      |
|    \\/     M anipulation  |                                                 |
\*---------------------------------------------------------------------------*/
FoamFile
{
    version     2.0;
    format      ascii;
    class       surfaceVectorField;
    location    "3";
    object      Uf;
}
// * * * * * * * * * * * * * * * * * * * * * * * * * * * * * * * * * * * * * //

dimensions      [0 1 -1 0 0 0 0];


internalField   nonuniform List<vector> 
1460
(
(-0.0166662 -0.132766 -8.86639e-20)
(-0.00489012 -0.145397 -8.81719e-21)
(-0.0248811 -0.128784 -4.39144e-20)
(-0.00932071 -0.140471 -2.19937e-19)
(-0.0326362 -0.123946 8.83014e-20)
(-0.0175733 -0.137723 1.95099e-19)
(-0.0385418 -0.118289 2.13199e-19)
(-0.024323 -0.131996 -2.69751e-20)
(-0.0440598 -0.112012 8.54118e-20)
(-0.0314089 -0.126976 1.73126e-19)
(-0.0492718 -0.105551 -1.54965e-21)
(-0.0387394 -0.121543 1.28856e-19)
(-0.0540115 -0.0989874 4.88473e-19)
(-0.0455744 -0.115838 -4.80455e-19)
(-0.0583967 -0.0922229 3.22147e-19)
(-0.0518965 -0.110077 6.94304e-19)
(-0.0630246 -0.0853429 -4.02122e-19)
(-0.0584863 -0.104003 -2.33855e-19)
(-0.0684478 -0.0785335 7.8969e-20)
(-0.0656992 -0.0975263 -3.23681e-19)
(-0.0746115 -0.0726355 3.17809e-19)
(-0.0742416 -0.090922 4.04211e-19)
(-0.0850383 -0.0849425 -3.61097e-19)
(-0.0814483 -0.0686906 2.37618e-19)
(-0.00245552 -0.150723 -1.40063e-19)
(-0.00738349 -0.158231 1.5019e-20)
(-0.0059212 -0.148773 1.88051e-20)
(-0.00779683 -0.156081 -1.02857e-19)
(-0.0129957 -0.144994 7.76739e-20)
(-0.0150109 -0.152195 1.221e-19)
(-0.0211254 -0.140663 -7.2357e-20)
(-0.0232753 -0.147659 -1.33997e-20)
(-0.0298292 -0.135979 2.18504e-19)
(-0.0321827 -0.142916 -6.04971e-20)
(-0.0383372 -0.130977 -3.57048e-19)
(-0.0412434 -0.13793 6.51078e-19)
(-0.0463506 -0.125878 -2.89179e-19)
(-0.0501611 -0.132888 -9.53139e-19)
(-0.0541715 -0.120701 1.3965e-19)
(-0.0591379 -0.128103 5.39355e-19)
(-0.0625745 -0.114952 -1.46423e-19)
(-0.0689505 -0.123521 -2.7854e-19)
(-0.0733327 -0.108339 0)
(-0.0812024 -0.117925 1.30311e-19)
(-0.0878913 -0.10122 -2.85921e-19)
(-0.0971138 -0.110417 -2.38911e-21)
(-0.116261 -0.102146 -5.32905e-19)
(-0.105507 -0.0946502 4.42532e-21)
(-0.00880227 -0.162385 5.74759e-20)
(-0.00446821 -0.172446 4.00533e-20)
(-0.0133221 -0.159545 -4.97417e-22)
(-0.00620617 -0.17113 3.48636e-21)
(-0.0211226 -0.15553 3.21428e-20)
(-0.0138764 -0.167535 -8.61066e-20)
(-0.0303264 -0.151132 3.30743e-21)
(-0.0239686 -0.163608 6.58184e-20)
(-0.0400767 -0.146414 3.77751e-19)
(-0.0348395 -0.159364 -4.86799e-21)
(-0.0500794 -0.141475 6.44679e-20)
(-0.0460374 -0.154624 5.49644e-19)
(-0.0604095 -0.136539 -1.21905e-19)
(-0.0575528 -0.149526 -3.78834e-19)
(-0.07186 -0.131826 1.22189e-19)
(-0.0700244 -0.14418 2.56564e-19)
(-0.0854919 -0.126846 6.53728e-22)
(-0.084005 -0.139032 -2.50952e-19)
(-0.102554 -0.121123 1.32141e-19)
(-0.10164 -0.132773 4.691e-19)
(-0.123639 -0.113982 -2.49397e-19)
(-0.123578 -0.12435 -3.10967e-19)
(-0.14871 -0.114352 -2.50064e-19)
(-0.147234 -0.106255 -3.62659e-19)
(-0.00374213 -0.179779 -1.43125e-20)
(-0.00389308 -0.189545 1.46725e-20)
(-0.00872211 -0.177804 -8.25423e-20)
(-0.0059787 -0.18863 -9.98379e-20)
(-0.0186347 -0.174971 -5.37357e-20)
(-0.0152164 -0.185717 4.13387e-20)
(-0.0302627 -0.171476 5.71393e-20)
(-0.0273064 -0.182839 0)
(-0.0424231 -0.167286 1.64821e-19)
(-0.0400894 -0.1792 5.79348e-20)
(-0.054937 -0.162409 1.07479e-19)
(-0.0532108 -0.174521 1.09181e-19)
(-0.068088 -0.156922 -5.03255e-22)
(-0.0668725 -0.168889 -9.92836e-20)
(-0.0830089 -0.150621 -1.16451e-19)
(-0.0818186 -0.162201 9.20074e-20)
(-0.101644 -0.143182 2.19241e-19)
(-0.0992224 -0.154557 7.08746e-20)
(-0.124879 -0.133969 2.29906e-20)
(-0.120672 -0.145258 -2.32805e-20)
(-0.151471 -0.123412 -3.1326e-19)
(-0.146303 -0.133452 -5.44394e-20)
(-0.172971 -0.120486 0)
(-0.177376 -0.112905 -9.51596e-20)
(-0.00504091 -0.196088 -7.16511e-20)
(-0.0042529 -0.206351 3.04763e-20)
(-0.0110411 -0.195121 2.52905e-20)
(-0.0073912 -0.206392 -7.16623e-20)
(-0.0226631 -0.193564 9.80027e-20)
(-0.0188737 -0.205207 1.38185e-19)
(-0.0360285 -0.190882 0)
(-0.0327074 -0.203871 8.17596e-20)
(-0.0499172 -0.186801 0)
(-0.046837 -0.200948 -1.59402e-19)
(-0.0644086 -0.181257 -1.01051e-19)
(-0.06125 -0.19609 -1.6295e-19)
(-0.0800128 -0.174454 -7.74471e-21)
(-0.0764838 -0.189196 6.22553e-20)
(-0.097634 -0.166415 2.8492e-19)
(-0.0932224 -0.180132 1.56349e-20)
(-0.118669 -0.156585 -1.78111e-19)
(-0.112489 -0.169185 3.25729e-20)
(-0.143606 -0.144294 -1.02436e-19)
(-0.135555 -0.156158 -3.73517e-19)
(-0.170065 -0.130052 2.64456e-19)
(-0.161405 -0.140458 2.67854e-19)
(-0.185923 -0.123818 0)
(-0.193263 -0.116289 1.45765e-19)
(-0.00647596 -0.21325 3.2954e-20)
(-0.00629733 -0.223285 4.57085e-21)
(-0.0147999 -0.214768 4.03505e-20)
(-0.0119717 -0.2252 1.82574e-20)
(-0.0284905 -0.215374 1.22254e-19)
(-0.0256516 -0.226837 3.8994e-21)
(-0.0430613 -0.214052 -7.82887e-20)
(-0.0405522 -0.227643 8.38112e-20)
(-0.0577237 -0.210283 -3.26547e-19)
(-0.0551368 -0.22584 -9.26345e-20)
(-0.0729311 -0.203807 -9.65058e-24)
(-0.0697513 -0.220873 -1.67039e-19)
(-0.0895165 -0.19465 8.69081e-20)
(-0.0851958 -0.212351 1.68735e-19)
(-0.10855 -0.183167 -2.4437e-19)
(-0.102432 -0.19989 1.83553e-19)
(-0.130611 -0.169307 -1.63604e-19)
(-0.121917 -0.184289 -2.93552e-19)
(-0.155015 -0.152918 0)
(-0.144399 -0.166461 1.31237e-19)
(-0.178814 -0.134694 0)
(-0.168076 -0.146612 -5.80833e-21)
(-0.188803 -0.126349 -2.05132e-19)
(-0.197578 -0.117581 -1.20628e-19)
(-0.0113632 -0.23108 -1.06969e-20)
(-0.010576 -0.239598 -3.50529e-20)
(-0.0224572 -0.235782 -1.90354e-20)
(-0.0200861 -0.2449 3.21869e-20)
(-0.0375221 -0.239034 -3.65705e-20)
(-0.0354432 -0.249711 -3.69774e-20)
(-0.0524393 -0.239473 7.18881e-20)
(-0.0505216 -0.252809 0)
(-0.0668678 -0.236337 7.18881e-20)
(-0.0645494 -0.252524 1.91027e-20)
(-0.0815822 -0.229009 0)
(-0.0781008 -0.247897 1.49916e-19)
(-0.0977227 -0.217393 2.68211e-19)
(-0.0924503 -0.238104 1.97316e-19)
(-0.116195 -0.201756 1.38669e-19)
(-0.108621 -0.222535 5.34613e-20)
(-0.137131 -0.182783 7.63523e-21)
(-0.126796 -0.20191 -2.23759e-19)
(-0.159192 -0.161432 1.2232e-19)
(-0.147239 -0.178327 2.41322e-19)
(-0.179333 -0.139022 -2.16318e-19)
(-0.167723 -0.153626 3.46248e-22)
(-0.184563 -0.129588 -3.65201e-19)
(-0.193911 -0.118518 -1.07626e-19)
(-0.0193776 -0.249722 5.95452e-21)
(-0.0176255 -0.254978 -2.53219e-20)
(-0.0332943 -0.257736 1.46193e-20)
(-0.0313433 -0.264839 1.47718e-20)
(-0.0488978 -0.263396 0)
(-0.0472087 -0.271901 0)
(-0.0632474 -0.265712 -5.41883e-20)
(-0.0615499 -0.276183 4.3714e-20)
(-0.076399 -0.263772 9.70912e-20)
(-0.0739658 -0.276799 -5.57318e-20)
(-0.0893056 -0.256295 3.5114e-19)
(-0.0849948 -0.272831 -6.16879e-20)
(-0.103484 -0.242885 -1.92404e-20)
(-0.0970084 -0.263059 1.90426e-19)
(-0.119917 -0.223434 -3.13676e-19)
(-0.111104 -0.246541 -2.97049e-19)
(-0.138605 -0.199149 1.30074e-20)
(-0.127474 -0.222783 6.93942e-20)
(-0.157595 -0.172043 1.13188e-19)
(-0.145245 -0.193907 1.07941e-19)
(-0.174118 -0.144872 -1.53203e-19)
(-0.162576 -0.163633 8.0305e-20)
(-0.176186 -0.135033 -1.58668e-19)
(-0.185441 -0.120659 -1.00929e-20)
(-0.0302112 -0.268409 -1.75458e-20)
(-0.0271396 -0.268877 1.74284e-21)
(-0.0460399 -0.278259 0)
(-0.0437048 -0.282742 -4.34508e-20)
(-0.0608745 -0.284532 4.41747e-20)
(-0.058051 -0.288448 1.79077e-20)
(-0.0732193 -0.286968 4.35069e-20)
(-0.0698443 -0.29046 4.46083e-20)
(-0.0839127 -0.285509 -2.14452e-19)
(-0.079425 -0.289175 9.14508e-20)
(-0.0942662 -0.278615 -2.21528e-19)
(-0.0869075 -0.284973 -3.08532e-19)
(-0.105969 -0.265857 -8.31137e-20)
(-0.0963942 -0.276625 5.31267e-20)
(-0.119868 -0.246113 8.97273e-20)
(-0.10854 -0.262803 -7.6432e-20)
(-0.135785 -0.219076 1.64534e-19)
(-0.123383 -0.241515 2.55816e-19)
(-0.152023 -0.187096 7.36102e-20)
(-0.139585 -0.212168 4.76496e-20)
(-0.165667 -0.154464 7.36102e-20)
(-0.154719 -0.178214 7.15091e-20)
(-0.166233 -0.14473 -8.26898e-20)
(-0.174697 -0.125518 1.4764e-19)
(-0.0410704 -0.285141 -2.5262e-20)
(-0.0369522 -0.278504 1.98551e-20)
(-0.0567735 -0.292179 -2.62172e-20)
(-0.0521551 -0.291973 -3.38371e-22)
(-0.0685974 -0.293774 1.80852e-20)
(-0.061512 -0.289879 3.97897e-21)
(-0.0771717 -0.292348 9.33655e-20)
(-0.0690984 -0.284595 0)
(-0.0840533 -0.288196 -7.73778e-22)
(-0.0744882 -0.278517 3.45298e-20)
(-0.0917344 -0.281868 -3.20631e-20)
(-0.0794446 -0.272751 -1.36517e-19)
(-0.101717 -0.272171 6.12251e-20)
(-0.0873612 -0.266359 -1.47299e-20)
(-0.114462 -0.257276 9.05556e-20)
(-0.0987527 -0.257477 1.01643e-20)
(-0.129071 -0.234986 1.38677e-19)
(-0.113253 -0.243648 -9.095e-20)
(-0.143699 -0.204544 4.25803e-20)
(-0.129347 -0.222187 1.95327e-20)
(-0.155994 -0.169369 -8.85785e-20)
(-0.144527 -0.19255 2.62586e-20)
(-0.156017 -0.158572 -8.42835e-20)
(-0.163911 -0.135522 -2.9659e-20)
(-0.0515514 -0.291965 4.28169e-20)
(-0.0389306 -0.281189 -1.26931e-23)
(-0.0597288 -0.287258 3.01168e-20)
(-0.0478715 -0.278336 3.05904e-20)
(-0.0639877 -0.27913 -1.44074e-20)
(-0.0516106 -0.265587 3.58079e-21)
(-0.0677918 -0.270424 -5.81132e-20)
(-0.0554036 -0.253019 0)
(-0.0716044 -0.262607 -1.00183e-19)
(-0.0584086 -0.243357 -5.86235e-20)
(-0.07762 -0.256562 -1.19308e-19)
(-0.0628892 -0.236818 -5.94921e-21)
(-0.0871266 -0.250523 -6.54946e-20)
(-0.0705245 -0.232172 -4.52258e-20)
(-0.100226 -0.242437 -1.63666e-19)
(-0.0818849 -0.22747 6.8821e-20)
(-0.1158 -0.22979 -2.02398e-19)
(-0.0965659 -0.220688 -1.21642e-19)
(-0.131668 -0.209952 4.58326e-22)
(-0.113287 -0.209563 -4.55681e-20)
(-0.14522 -0.18206 2.94092e-20)
(-0.129897 -0.191722 2.19786e-20)
(-0.143609 -0.166678 0)
(-0.154326 -0.149503 -8.93035e-20)
(-0.0348275 -0.277061 -1.17052e-20)
(-0.0151123 -0.241156 -3.06603e-21)
(-0.0417725 -0.253239 6.57539e-21)
(-0.0250453 -0.230166 -1.17974e-20)
(-0.0443573 -0.237191 1.82752e-20)
(-0.0313764 -0.216842 -1.03114e-20)
(-0.0465917 -0.225511 0)
(-0.0356333 -0.205812 0)
(-0.0501274 -0.217597 3.61942e-20)
(-0.0393506 -0.198315 2.40073e-20)
(-0.056274 -0.212646 6.84656e-20)
(-0.044537 -0.193606 5.78883e-20)
(-0.065888 -0.209122 8.89108e-20)
(-0.0522893 -0.190498 1.1315e-20)
(-0.0790469 -0.205334 1.06214e-19)
(-0.063119 -0.187591 5.71117e-20)
(-0.0950848 -0.199664 3.34287e-20)
(-0.0768906 -0.183615 2.80466e-20)
(-0.112529 -0.190376 -2.38677e-20)
(-0.0928952 -0.177616 -2.48961e-20)
(-0.129018 -0.175416 -7.75692e-21)
(-0.109743 -0.168606 3.46384e-20)
(-0.142232 -0.154014 -2.34802e-20)
(-0.125607 -0.155145 -1.00972e-20)
(-0.0891562 -0.0659902 -4.76672e-21)
(-0.0974435 -0.08109 6.05071e-19)
(-0.0983111 -0.0626801 -4.02697e-19)
(-0.110993 -0.0787722 -1.88584e-19)
(-0.108584 -0.0572419 9.04794e-20)
(-0.124223 -0.076631 -3.42521e-19)
(-0.117787 -0.0502606 -3.31855e-19)
(-0.135044 -0.0738857 5.71029e-19)
(-0.123279 -0.0436822 -6.69492e-19)
(-0.141662 -0.0704341 -9.38539e-19)
(-0.12431 -0.0384329 -1.66874e-19)
(-0.143587 -0.0656829 4.04973e-19)
(-0.122164 -0.0327351 8.0667e-20)
(-0.14206 -0.0595559 -2.53799e-19)
(-0.118516 -0.0237677 1.22229e-19)
(-0.138581 -0.0519344 -1.23983e-19)
(-0.117591 -0.0112997 4.15624e-20)
(-0.134885 -0.036851 1.1321e-19)
(-0.120382 0.00292053 5.11718e-22)
(-0.131821 -0.0192996 3.57167e-20)
(-0.127142 0.0127819 1.09157e-20)
(-0.131559 -0.00091399 -1.45608e-20)
(-0.133641 0.00828997 1.05632e-20)
(-0.12463 -0.0898727 4.29195e-19)
(-0.137205 -0.0954268 1.78318e-19)
(-0.142748 -0.0873157 -1.24917e-19)
(-0.157032 -0.0912111 3.59978e-19)
(-0.156629 -0.0869053 1.22727e-19)
(-0.17231 -0.0895651 -6.94589e-20)
(-0.164463 -0.0875729 -5.57669e-20)
(-0.181344 -0.0898283 2.88714e-19)
(-0.166755 -0.0871743 1.39864e-19)
(-0.184745 -0.0907042 -4.49633e-19)
(-0.16409 -0.0832177 3.22188e-19)
(-0.183654 -0.09161 6.85635e-19)
(-0.159163 -0.0750947 -4.64222e-19)
(-0.180678 -0.0875117 -6.59161e-20)
(-0.153668 -0.061418 -1.36587e-19)
(-0.176023 -0.0791154 -3.11125e-19)
(-0.148064 -0.04117 1.08611e-19)
(-0.169985 -0.0618798 1.79393e-19)
(-0.144959 -0.0172025 1.92669e-20)
(-0.162567 -0.0359111 7.41314e-21)
(-0.14596 0.00180871 -1.71615e-20)
(-0.154151 -0.0050149 1.36429e-20)
(-0.148426 0.0121457 -7.52574e-21)
(-0.169402 -0.099856 1.10599e-19)
(-0.173036 -0.105429 -2.14603e-19)
(-0.186326 -0.0961164 4.27186e-19)
(-0.191914 -0.0996636 4.85504e-19)
(-0.196529 -0.095109 9.53334e-20)
(-0.203028 -0.097721 4.00933e-20)
(-0.201008 -0.0958845 -1.06785e-19)
(-0.20754 -0.0987609 -1.96766e-19)
(-0.201413 -0.097326 9.73368e-20)
(-0.208347 -0.101425 0)
(-0.20011 -0.0982705 2.97703e-19)
(-0.208029 -0.103727 -1.59977e-19)
(-0.195833 -0.094592 9.72027e-20)
(-0.206566 -0.105337 2.77712e-19)
(-0.189568 -0.0826403 6.96201e-21)
(-0.204318 -0.101838 -1.84049e-19)
(-0.181007 -0.0592791 7.96281e-20)
(-0.199955 -0.0888217 6.53856e-20)
(-0.172041 -0.0270403 1.9836e-21)
(-0.191985 -0.0610594 1.32108e-20)
(-0.165592 0.00080673 2.55077e-20)
(-0.178367 -0.0207714 5.89979e-20)
(-0.163043 0.00972615 1.21828e-20)
(-0.197834 -0.104753 1.64516e-19)
(-0.195474 -0.109272 4.72514e-20)
(-0.210185 -0.100635 9.04523e-20)
(-0.209667 -0.102241 1.21342e-19)
(-0.215227 -0.100583 -2.56251e-19)
(-0.215359 -0.0998511 -3.25056e-20)
(-0.215951 -0.103283 -8.78361e-20)
(-0.215791 -0.100681 -2.30835e-19)
(-0.215526 -0.106964 -2.61924e-19)
(-0.214841 -0.102911 0)
(-0.215351 -0.109922 -1.83867e-19)
(-0.215069 -0.105547 -2.6557e-19)
(-0.21568 -0.110949 -1.67055e-21)
(-0.217176 -0.108565 1.24646e-20)
(-0.214165 -0.105997 -1.26036e-19)
(-0.220001 -0.11072 6.00121e-20)
(-0.208316 -0.0883388 -6.40703e-22)
(-0.221041 -0.106902 -4.68006e-20)
(-0.196982 -0.0538853 7.12779e-20)
(-0.217163 -0.0875752 6.04731e-21)
(-0.184184 -0.0126552 4.60178e-20)
(-0.204225 -0.0457214 -1.5794e-20)
(-0.181595 0.00275048 8.53336e-21)
(-0.208797 -0.106068 1.27366e-21)
(-0.203971 -0.109975 2.85594e-20)
(-0.215541 -0.100899 -3.7466e-21)
(-0.212672 -0.101705 1.99098e-19)
(-0.216077 -0.0998029 -3.32478e-21)
(-0.213654 -0.0989361 1.40704e-19)
(-0.214597 -0.100565 -1.43777e-19)
(-0.211454 -0.0991504 -2.67224e-19)
(-0.214452 -0.101913 0)
(-0.21022 -0.0996487 0)
(-0.216982 -0.104305 -6.7775e-20)
(-0.211984 -0.0996931 0)
(-0.221723 -0.108162 7.47983e-20)
(-0.216977 -0.100972 -1.06912e-21)
(-0.226698 -0.111124 1.42573e-19)
(-0.224414 -0.104978 7.82937e-20)
(-0.227916 -0.105263 -4.01999e-20)
(-0.231782 -0.109569 0)
(-0.220763 -0.0790326 -8.28003e-20)
(-0.235125 -0.104295 -4.07163e-20)
(-0.205458 -0.0311656 -5.48512e-20)
(-0.229365 -0.0723756 -4.19705e-20)
(-0.207491 -0.0114085 2.50176e-20)
(-0.208087 -0.105258 2.28034e-19)
(-0.202317 -0.109734 -2.34494e-20)
(-0.210734 -0.0991871 3.49188e-19)
(-0.207062 -0.0998759 2.41398e-19)
(-0.209163 -0.0976408 -1.241e-19)
(-0.205824 -0.0964003 1.91436e-19)
(-0.207592 -0.0975096 -1.23182e-19)
(-0.203532 -0.0960503 -3.14521e-19)
(-0.208518 -0.0967502 0)
(-0.203594 -0.0954427 -9.38337e-20)
(-0.212653 -0.0956823 6.74821e-20)
(-0.206872 -0.0931904 -1.06087e-19)
(-0.220083 -0.0969862 1.46339e-21)
(-0.213356 -0.0906519 1.73704e-19)
(-0.229724 -0.102524 -6.60187e-20)
(-0.222978 -0.0918084 -1.84549e-20)
(-0.23855 -0.10735 0)
(-0.234325 -0.098934 0)
(-0.240108 -0.0958447 7.0132e-22)
(-0.243958 -0.105885 4.66021e-20)
(-0.228127 -0.0517525 3.65733e-20)
(-0.248801 -0.0921698 2.50909e-20)
(-0.237693 -0.0328305 2.15712e-20)
(-0.200901 -0.103768 -1.31405e-20)
(-0.194607 -0.109863 2.4647e-19)
(-0.201702 -0.0963665 8.03506e-20)
(-0.197351 -0.0976043 -3.28671e-19)
(-0.200248 -0.0941985 3.28966e-21)
(-0.195941 -0.0925374 1.97269e-19)
(-0.200134 -0.0934486 -2.87128e-19)
(-0.194851 -0.091232 -3.83154e-20)
(-0.202831 -0.0914451 -2.02334e-19)
(-0.196546 -0.0898951 -1.09841e-20)
(-0.208355 -0.0878304 1.00603e-21)
(-0.201338 -0.0865277 -1.86831e-19)
(-0.216593 -0.0849779 1.55624e-19)
(-0.209032 -0.0814681 1.49007e-19)
(-0.227547 -0.0874759 4.89347e-20)
(-0.219498 -0.0784742 4.23513e-21)
(-0.240629 -0.0966264 4.71646e-20)
(-0.232022 -0.0824482 -2.81972e-21)
(-0.251308 -0.100306 7.18401e-20)
(-0.244135 -0.0939051 4.04855e-20)
(-0.248105 -0.0709661 8.06396e-21)
(-0.257814 -0.0988218 2.10145e-20)
(-0.26476 -0.0570196 -1.12149e-20)
(-0.190476 -0.102837 -6.69803e-20)
(-0.183884 -0.111455 2.94826e-19)
(-0.190982 -0.0929733 -2.16198e-19)
(-0.185856 -0.0957731 -2.63442e-19)
(-0.190484 -0.0891452 1.56948e-19)
(-0.185079 -0.0879882 9.92852e-20)
(-0.191767 -0.0874472 2.40939e-19)
(-0.185239 -0.0849993 1.64465e-19)
(-0.195866 -0.0846833 4.3587e-21)
(-0.188262 -0.0828158 8.63661e-20)
(-0.202863 -0.0798056 -3.75556e-20)
(-0.194519 -0.0786572 -2.68163e-20)
(-0.212277 -0.0744538 -3.88028e-21)
(-0.203797 -0.0721969 -4.78665e-20)
(-0.223626 -0.0728459 -4.76005e-20)
(-0.215233 -0.0665402 1.76439e-20)
(-0.236972 -0.0798558 -1.04272e-20)
(-0.227888 -0.0668271 -7.29498e-20)
(-0.252165 -0.0925035 -1.1378e-20)
(-0.239649 -0.07618 -4.50218e-20)
(-0.260066 -0.0832556 1.84208e-21)
(-0.256212 -0.0913179 -2.22332e-20)
(-0.281093 -0.0751111 5.0608e-22)
(-0.178679 -0.103527 1.03353e-19)
(-0.17251 -0.116307 2.02149e-19)
(-0.179382 -0.089987 5.24869e-20)
(-0.174218 -0.0959613 -8.3543e-20)
(-0.179763 -0.0834126 1.06273e-19)
(-0.17404 -0.084124 5.77061e-20)
(-0.182116 -0.0801824 5.90203e-21)
(-0.175071 -0.0783353 -1.84847e-20)
(-0.187482 -0.0766227 5.33701e-20)
(-0.179165 -0.0746909 3.684e-20)
(-0.196013 -0.0707692 -3.78678e-20)
(-0.186887 -0.0696992 6.84953e-21)
(-0.206992 -0.0638287 -2.66774e-20)
(-0.197744 -0.0621644 -9.17329e-20)
(-0.219189 -0.0599529 -6.19239e-21)
(-0.210136 -0.0548574 8.81336e-20)
(-0.232193 -0.0635399 -1.09019e-19)
(-0.222857 -0.0529497 -9.54941e-20)
(-0.246731 -0.0765697 -5.80797e-20)
(-0.234376 -0.059956 -5.23426e-20)
(-0.262256 -0.0832711 -2.48415e-20)
(-0.250746 -0.0755781 -1.14571e-20)
(-0.284178 -0.0785435 -1.21711e-20)
(-0.167439 -0.108155 1.80981e-20)
(-0.162392 -0.126251 -3.29379e-20)
(-0.168318 -0.0894681 -8.08717e-20)
(-0.164382 -0.100604 -8.14335e-20)
(-0.169202 -0.0787061 -6.86922e-20)
(-0.164648 -0.083395 -1.82336e-20)
(-0.172334 -0.072752 1.14543e-20)
(-0.166141 -0.0732695 6.67392e-20)
(-0.178908 -0.0677356 -1.10426e-20)
(-0.170909 -0.0668323 2.62196e-20)
(-0.188861 -0.0609437 -4.7611e-20)
(-0.179597 -0.06034 9.40807e-21)
(-0.200883 -0.052802 2.37044e-20)
(-0.191245 -0.0518839 -3.10549e-20)
(-0.213516 -0.047271 -3.85124e-22)
(-0.20373 -0.0434002 3.6817e-20)
(-0.226533 -0.049074 -3.81222e-20)
(-0.215993 -0.0397185 -7.34232e-21)
(-0.241491 -0.0592265 -3.72308e-21)
(-0.227748 -0.0444275 -4.16183e-21)
(-0.260306 -0.0708765 4.19328e-21)
(-0.246037 -0.0575889 3.03636e-21)
(-0.277558 -0.065606 -1.07827e-20)
(-0.158638 -0.118618 -1.34492e-19)
(-0.152552 -0.137527 -1.13362e-19)
(-0.160066 -0.0943464 -1.92728e-20)
(-0.156729 -0.109715 -2.88493e-20)
(-0.161292 -0.0778919 1.19123e-19)
(-0.158271 -0.0876125 -1.95959e-21)
(-0.164755 -0.0674255 8.20047e-20)
(-0.160247 -0.0721228 1.1354e-19)
(-0.171783 -0.0595345 4.71094e-20)
(-0.165019 -0.0613227 -7.7444e-20)
(-0.182051 -0.0512351 2.64542e-20)
(-0.173355 -0.0520839 3.3964e-20)
(-0.1938 -0.0421309 -1.83319e-20)
(-0.184101 -0.042297 -1.16501e-20)
(-0.205544 -0.035076 2.95103e-20)
(-0.195045 -0.0328575 -1.40568e-20)
(-0.217939 -0.0342674 2.72238e-20)
(-0.205557 -0.0272592 1.77505e-20)
(-0.234113 -0.0409981 2.60354e-21)
(-0.216676 -0.0283608 9.71227e-21)
(-0.258342 -0.0487878 -1.05766e-20)
(-0.237137 -0.0359488 -9.22129e-21)
(-0.262582 -0.0383552 5.92928e-21)
(-0.150467 -0.128155 -7.82269e-21)
(-0.138167 -0.136728 1.75486e-21)
(-0.154533 -0.1028 -1.27692e-20)
(-0.146668 -0.114706 4.57628e-20)
(-0.156987 -0.0818473 -8.66384e-21)
(-0.151693 -0.0928166 9.45452e-21)
(-0.16052 -0.0661215 -4.76825e-20)
(-0.155427 -0.0740356 1.99276e-20)
(-0.166723 -0.0539802 -9.21385e-20)
(-0.160174 -0.0589257 -6.78379e-20)
(-0.175393 -0.043147 -4.71423e-21)
(-0.16698 -0.0461984 -2.5069e-20)
(-0.184889 -0.0328204 -7.23402e-21)
(-0.175112 -0.0344889 1.74537e-21)
(-0.193912 -0.0245003 -2.73814e-20)
(-0.182882 -0.0240807 -4.34627e-20)
(-0.203579 -0.0203613 0)
(-0.189932 -0.0168076 0)
(-0.21931 -0.0199335 -4.64587e-21)
(-0.19794 -0.0129396 1.47155e-20)
(-0.249828 -0.0156132 1.98779e-21)
(-0.21209 -0.00960438 -3.17556e-21)
(-0.225811 0.00709525 9.43698e-21)
(-0.131612 0.0166361 -7.15125e-21)
(-0.141633 0.00280775 5.0554e-20)
(-0.127489 0.0243544 -1.0845e-19)
(-0.13999 0.00893395 -1.4104e-19)
(-0.122328 0.0311619 7.07906e-22)
(-0.13608 0.0164027 6.93673e-20)
(-0.116704 0.0375878 4.28616e-20)
(-0.131304 0.0243319 4.36586e-20)
(-0.11083 0.0435286 -8.32602e-20)
(-0.126125 0.0320151 -1.43085e-19)
(-0.104761 0.0488934 -8.32602e-20)
(-0.120708 0.0391794 -2.26799e-19)
(-0.0984017 0.0536566 0)
(-0.115222 0.0456534 7.019e-19)
(-0.0917254 0.0580782 7.62724e-20)
(-0.109624 0.0518316 -2.80281e-19)
(-0.0849047 0.0628123 1.5553e-19)
(-0.103585 0.0584424 2.10239e-19)
(-0.0782262 0.068359 1.58296e-19)
(-0.0971203 0.0657932 -6.30896e-20)
(-0.0726503 0.0746163 1.57837e-19)
(-0.0905883 0.0746534 2.24226e-19)
(-0.0849322 0.0857604 7.75775e-20)
(-0.0690908 0.081513 -3.78532e-22)
(-0.150256 -0.000347166 -8.45396e-20)
(-0.157445 0.00460254 -9.79686e-21)
(-0.148129 0.00485212 3.7175e-20)
(-0.156417 0.00732508 -4.52355e-20)
(-0.144632 0.0131224 1.12542e-19)
(-0.152409 0.0149303 1.14424e-19)
(-0.140294 0.0220488 -1.45796e-19)
(-0.147831 0.0238027 -6.08877e-20)
(-0.135506 0.0306959 -2.9028e-19)
(-0.142974 0.0328964 -8.76113e-20)
(-0.130516 0.0388051 5.70723e-19)
(-0.137919 0.0417897 -1.471e-19)
(-0.125499 0.046504 4.29889e-19)
(-0.132928 0.0504617 6.05766e-19)
(-0.120351 0.0542226 -1.46451e-19)
(-0.128256 0.059369 -2.90367e-19)
(-0.114536 0.0627526 -4.66167e-21)
(-0.123727 0.0693282 2.63365e-19)
(-0.107936 0.0740045 -1.05363e-22)
(-0.117892 0.0821567 -2.74955e-19)
(-0.100916 0.08915 1.42998e-19)
(-0.110258 0.0986121 2.71886e-19)
(-0.102169 0.118357 -1.24019e-19)
(-0.0946437 0.10732 -2.91309e-19)
(-0.163477 0.008528 3.14468e-20)
(-0.17294 0.0034693 2.76918e-20)
(-0.160502 0.013591 3.14468e-20)
(-0.171899 0.0057 -2.49127e-20)
(-0.156384 0.0216019 -6.19232e-20)
(-0.16823 0.013811 0)
(-0.151761 0.030943 -2.69475e-22)
(-0.164227 0.0243225 1.57586e-19)
(-0.146853 0.0406796 6.16537e-20)
(-0.159838 0.0353866 5.0245e-21)
(-0.141869 0.0505567 -1.2871e-19)
(-0.155026 0.0465962 -3.28597e-19)
(-0.136997 0.0608014 -1.2871e-19)
(-0.149991 0.0580774 8.9175e-20)
(-0.132386 0.0724305 1.23971e-19)
(-0.144752 0.0707593 0)
(-0.127394 0.0865472 -8.31247e-21)
(-0.139723 0.0851056 8.29075e-21)
(-0.121509 0.104318 -1.52256e-21)
(-0.13327 0.103464 8.11789e-20)
(-0.114273 0.126191 7.46234e-21)
(-0.12458 0.126182 -2.76574e-19)
(-0.114598 0.151824 1.50102e-19)
(-0.106664 0.150255 -1.15659e-19)
(-0.180096 0.00280215 -2.79151e-20)
(-0.189859 0.00329848 6.40137e-20)
(-0.17831 0.00825885 -5.67018e-20)
(-0.188961 0.00571546 -1.04134e-19)
(-0.175517 0.0186774 2.22264e-19)
(-0.186069 0.0152414 -9.54952e-20)
(-0.171956 0.030641 1.65373e-19)
(-0.183204 0.0276074 3.67908e-19)
(-0.167702 0.0429549 -3.90573e-19)
(-0.179525 0.0405618 -1.53761e-19)
(-0.162843 0.0555426 -1.10804e-19)
(-0.174851 0.0538007 -3.38311e-19)
(-0.157452 0.0688536 2.23232e-19)
(-0.169299 0.0675995 3.18405e-19)
(-0.151199 0.0842283 -1.16672e-19)
(-0.162681 0.0828964 0)
(-0.143666 0.103633 1.02124e-19)
(-0.155139 0.100796 -1.18297e-19)
(-0.134338 0.127706 -1.96538e-19)
(-0.145646 0.123089 3.99166e-19)
(-0.123741 0.154769 -1.30674e-19)
(-0.133624 0.149332 -5.90256e-19)
(-0.120707 0.175998 1.43756e-19)
(-0.113383 0.180465 1.00142e-19)
(-0.196299 0.00489803 -1.05102e-20)
(-0.206493 0.00393593 3.55245e-20)
(-0.195371 0.0110992 -1.44145e-19)
(-0.206545 0.00719747 1.23896e-20)
(-0.193827 0.0229362 4.63948e-20)
(-0.205361 0.0189351 -9.80874e-20)
(-0.191109 0.0364779 4.68075e-20)
(-0.20399 0.0329632 2.27288e-19)
(-0.186995 0.0505177 -9.72454e-20)
(-0.20102 0.0472549 -1.80147e-19)
(-0.181481 0.0651936 9.33651e-20)
(-0.196148 0.0618652 1.62628e-19)
(-0.174789 0.0810908 9.33651e-20)
(-0.189256 0.0773588 -6.58161e-22)
(-0.166793 0.0991813 0)
(-0.180195 0.0944454 0)
(-0.156908 0.120922 1.79827e-19)
(-0.169291 0.114255 1.55196e-19)
(-0.144435 0.146446 6.57522e-21)
(-0.156142 0.137979 3.19467e-20)
(-0.130126 0.172931 -3.16667e-19)
(-0.140254 0.164061 -2.99689e-19)
(-0.123743 0.188103 1.06659e-19)
(-0.116581 0.195412 1.34667e-19)
(-0.213309 0.00622036 6.01457e-20)
(-0.223348 0.00604719 -1.09864e-20)
(-0.214855 0.0147474 6.10513e-20)
(-0.225194 0.0118176 7.75389e-20)
(-0.215409 0.0286192 8.27427e-20)
(-0.226781 0.0256544 -9.89535e-20)
(-0.214004 0.0433481 3.92126e-22)
(-0.227501 0.040694 8.37294e-20)
(-0.210151 0.0582 8.20287e-20)
(-0.225603 0.0554334 -8.37017e-20)
(-0.203621 0.073682 6.99585e-20)
(-0.220541 0.0702801 1.66709e-19)
(-0.194443 0.0906382 -9.65599e-20)
(-0.211898 0.0860106 -2.38502e-19)
(-0.182977 0.110142 1.57215e-19)
(-0.199281 0.103609 0)
(-0.169079 0.132689 1.82332e-21)
(-0.183645 0.123525 1.5909e-19)
(-0.152551 0.157307 -2.8006e-19)
(-0.16581 0.146381 -3.70443e-20)
(-0.134316 0.180749 1.2764e-19)
(-0.145892 0.169949 -1.47185e-20)
(-0.125861 0.189954 -5.51348e-20)
(-0.117543 0.198564 2.44441e-19)
(-0.231062 0.0111569 4.3847e-21)
(-0.239617 0.010309 -1.21351e-20)
(-0.235685 0.022339 -8.35227e-20)
(-0.244811 0.0198525 -1.09788e-20)
(-0.23883 0.0375162 -1.00148e-19)
(-0.249529 0.0353311 -4.06553e-20)
(-0.23914 0.0525593 0)
(-0.252518 0.050524 5.11832e-20)
(-0.235854 0.0671769 0)
(-0.252094 0.0646913 -4.97114e-20)
(-0.228355 0.0821763 -1.42742e-19)
(-0.247279 0.0784571 0)
(-0.216604 0.0987044 -1.42742e-19)
(-0.237196 0.0931069 -1.4433e-19)
(-0.200815 0.11752 0)
(-0.221344 0.109527 1.00973e-19)
(-0.1818 0.138704 1.18326e-19)
(-0.20049 0.128037 -2.03374e-19)
(-0.160421 0.160707 2.28607e-19)
(-0.176934 0.148604 3.93772e-19)
(-0.138129 0.180308 -2.04477e-19)
(-0.152343 0.168774 -1.28238e-19)
(-0.128657 0.184851 -2.41788e-19)
(-0.118086 0.193956 -2.18056e-19)
(-0.249654 0.019079 -2.90124e-20)
(-0.255008 0.017292 8.14174e-21)
(-0.257592 0.0330659 3.37302e-20)
(-0.264749 0.0310421 8.93916e-21)
(-0.263154 0.0487723 1.12749e-19)
(-0.271762 0.0470214 3.89383e-20)
(-0.265322 0.0632183 1.48838e-21)
(-0.275972 0.0614472 3.35116e-21)
(-0.263181 0.0765183 -5.02708e-20)
(-0.276448 0.0739784 -3.39216e-21)
(-0.255414 0.0896566 0)
(-0.272253 0.0851672 -6.78297e-21)
(-0.241649 0.104158 1.02109e-19)
(-0.262093 0.0974352 1.57001e-19)
(-0.22193 0.120935 -1.05767e-19)
(-0.24509 0.111793 9.94393e-20)
(-0.197399 0.139644 7.65926e-20)
(-0.22096 0.128236 -3.51558e-19)
(-0.170368 0.158386 2.54728e-20)
(-0.191908 0.146063 2.67296e-19)
(-0.143474 0.174334 -1.65497e-19)
(-0.161822 0.162987 -2.48697e-19)
(-0.133678 0.175902 -1.60749e-20)
(-0.11983 0.184874 1.44357e-19)
(-0.268373 0.0298594 4.68613e-20)
(-0.268956 0.0267742 1.79439e-20)
(-0.278203 0.0457775 1.39887e-20)
(-0.282747 0.0434029 2.77417e-20)
(-0.284447 0.0607161 -7.14117e-20)
(-0.288486 0.05788 -5.78971e-20)
(-0.286794 0.0731345 -1.50924e-21)
(-0.290476 0.0697278 2.04702e-20)
(-0.285153 0.0839315 4.01207e-20)
(-0.289098 0.079381 4.08296e-20)
(-0.277971 0.0944601 1.51101e-19)
(-0.284725 0.0869987 -1.06507e-19)
(-0.26477 0.106374 1.55407e-19)
(-0.276067 0.096683 1.60213e-19)
(-0.244469 0.120477 -1.5014e-19)
(-0.261748 0.109026 -3.81111e-21)
(-0.217062 0.136488 -1.56914e-19)
(-0.239855 0.123962 -1.20273e-19)
(-0.184906 0.152341 -1.60462e-20)
(-0.210149 0.139969 2.01854e-20)
(-0.152621 0.165425 -9.51369e-20)
(-0.176112 0.154777 -9.08579e-21)
(-0.143043 0.16567 -8.56047e-20)
(-0.1243 0.173834 -6.32388e-20)
(-0.28519 0.0407563 -2.60348e-21)
(-0.278693 0.0366346 5.6351e-21)
(-0.292312 0.0565906 -4.43644e-20)
(-0.292114 0.0519513 4.52346e-21)
(-0.293926 0.0684871 3.43763e-20)
(-0.290116 0.0614012 -1.02364e-19)
(-0.292461 0.0771044 6.33195e-20)
(-0.284821 0.0690059 1.48043e-19)
(-0.288212 0.0840797 -1.018e-19)
(-0.278699 0.0744629 -2.0379e-20)
(-0.281715 0.0919207 -9.52931e-20)
(-0.272866 0.0795778 -3.89435e-20)
(-0.271707 0.102076 0)
(-0.266329 0.087684 0)
(-0.256314 0.114916 2.25962e-20)
(-0.257147 0.0992312 3.51625e-20)
(-0.23338 0.129482 5.32295e-20)
(-0.24282 0.11376 1.10581e-19)
(-0.202542 0.143896 2.33783e-20)
(-0.22079 0.129698 -1.30481e-19)
(-0.167321 0.155602 2.09744e-21)
(-0.190833 0.14444 -8.96849e-21)
(-0.156856 0.155472 5.63576e-20)
(-0.134016 0.162997 -1.0237e-19)
(-0.292136 0.0513352 1.24333e-20)
(-0.281503 0.0387605 -2.30702e-21)
(-0.287569 0.0596053 -5.19059e-20)
(-0.2786 0.0478008 1.41375e-20)
(-0.279451 0.0638968 8.9032e-21)
(-0.265911 0.051526 -6.31938e-20)
(-0.270721 0.067751 6.64042e-20)
(-0.25334 0.055323 5.38562e-20)
(-0.26289 0.0717001 4.17138e-20)
(-0.243676 0.0584489 -1.00532e-19)
(-0.256802 0.0779005 5.33073e-20)
(-0.23715 0.0631256 4.04503e-20)
(-0.250643 0.0875784 3.54914e-20)
(-0.232487 0.070966 -2.03115e-20)
(-0.242294 0.100756 1.12449e-19)
(-0.227684 0.082469 3.5803e-20)
(-0.229207 0.116247 -7.96193e-20)
(-0.220671 0.0971646 7.84768e-20)
(-0.20881 0.131856 -1.56952e-19)
(-0.209161 0.11373 -1.37437e-19)
(-0.180576 0.144993 4.38099e-20)
(-0.190902 0.129984 -2.43556e-20)
(-0.165568 0.143255 6.39144e-22)
(-0.148071 0.153558 1.06423e-19)
(-0.277354 0.0347062 -1.62592e-21)
(-0.241106 0.0151572 -9.2704e-22)
(-0.253603 0.0416297 2.73537e-21)
(-0.229991 0.0249806 -3.27462e-21)
(-0.237538 0.0442232 -2.26224e-20)
(-0.216794 0.0312153 2.75819e-21)
(-0.225861 0.0465741 -1.1218e-19)
(-0.205882 0.0355169 -2.36721e-20)
(-0.217981 0.0503028 -1.01542e-19)
(-0.198504 0.0394231 -3.98776e-20)
(-0.21306 0.0566672 -3.24474e-20)
(-0.193912 0.0448501 7.70875e-21)
(-0.209531 0.0664623 -2.04914e-20)
(-0.190888 0.0528234 1.51438e-20)
(-0.20567 0.079707 0)
(-0.188009 0.0637894 -3.47099e-21)
(-0.199832 0.0956889 1.59555e-20)
(-0.183992 0.0775727 -1.43649e-20)
(-0.190253 0.112905 -8.61589e-21)
(-0.177872 0.0934498 3.86618e-20)
(-0.174944 0.129041 -6.45945e-20)
(-0.168652 0.110037 -2.65581e-21)
(-0.153286 0.141807 -5.63799e-20)
(-0.154926 0.125555 -4.0357e-20)
(-0.0666101 0.0893729 -5.54139e-19)
(-0.0815066 0.0984915 -3.61263e-19)