/*--------------------------------*- C++ -*----------------------------------*\
| =========                 |                                                 |
| \\      /  F ield         | OpenFOAM: The Open Source CFD Toolbox           |
|  \\    /   O peration     | Version:  v1806                                 |
|   \\  /    A nd           | Web:      www.OpenFOAM.com                      |
|    \\/     M anipulation  |                                                 |
\*---------------------------------------------------------------------------*/
FoamFile
{
    version     2.0;
    format      ascii;
    class       volVectorField;
    location    "1";
    object      U;
}
// * * * * * * * * * * * * * * * * * * * * * * * * * * * * * * * * * * * * * //

dimensions      [0 1 -1 0 0 0 0];


internalField   nonuniform List<vector> 
3072
(
(0.0182397 0.134198 0)
(0.0285318 0.132615 -3.99364e-20)
(0.0330823 0.129699 0)
(0.0373167 0.123026 0)
(0.0431407 0.115622 -1.49097e-19)
(0.0505463 0.109097 -1.50641e-19)
(0.0595505 0.103733 0)
(0.0692571 0.0995914 0)
(0.0793591 0.0966986 8.60974e-19)
(0.0893475 0.0947431 -7.27907e-19)
(0.0983994 0.0931534 -5.60915e-19)
(0.105357 0.0911586 6.96728e-19)
(0.00423728 0.149394 -6.64714e-20)
(0.00192235 0.149336 2.01299e-19)
(0.00312824 0.144419 -1.31638e-19)
(0.0100949 0.138346 1.28938e-19)
(0.0216303 0.132697 2.61484e-19)
(0.034991 0.126822 0)
(0.0483704 0.121194 7.66756e-19)
(0.0619853 0.11639 -5.0903e-19)
(0.0755379 0.112358 -2.53377e-19)
(0.0882407 0.109507 0)
(0.0989536 0.108526 2.32879e-19)
(0.106673 0.109741 0)
(0.0107551 0.160511 2.85708e-20)
(0.00529756 0.161086 0)
(0.00809336 0.158251 0)
(0.0200401 0.155462 -2.38393e-19)
(0.0366766 0.152728 2.33966e-19)
(0.0545205 0.149287 -4.79222e-19)
(0.0716948 0.144659 2.40747e-19)
(0.0871537 0.138248 -4.60647e-19)
(0.100919 0.131047 1.48065e-20)
(0.11321 0.124324 6.47172e-19)
(0.123997 0.119506 -2.07763e-19)
(0.134633 0.117441 0)
(0.00400789 0.178353 -2.64073e-20)
(0.000660075 0.182902 4.94818e-20)
(0.0135946 0.185417 9.96722e-20)
(0.0335359 0.189128 -1.06166e-19)
(0.0538229 0.191163 -3.06125e-19)
(0.0723248 0.189665 4.08383e-19)
(0.0893346 0.184154 -2.10347e-19)
(0.105142 0.175197 1.89097e-19)
(0.119847 0.163791 0)
(0.133517 0.151629 -1.84691e-19)
(0.147255 0.140672 0)
(0.16453 0.131335 -2.92975e-19)
(0.00665577 0.196131 -6.52735e-20)
(0.0139838 0.207268 4.01221e-20)
(0.0350599 0.217184 -1.71434e-19)
(0.0574437 0.226961 -1.70498e-19)
(0.0771437 0.232773 1.38426e-20)
(0.0940001 0.233055 -5.90472e-21)
(0.108847 0.227416 1.59863e-19)
(0.122654 0.216443 1.49204e-19)
(0.13627 0.201355 -3.17791e-19)
(0.150821 0.183605 0)
(0.168041 0.164319 2.56813e-19)
(0.189533 0.144756 -2.01892e-19)
(0.0174745 0.213489 5.42244e-20)
(0.0362703 0.233836 -3.75034e-20)
(0.0621356 0.251133 7.58442e-21)
(0.085541 0.267175 0)
(0.103681 0.27818 1.38505e-19)
(0.117324 0.282066 -1.37982e-19)
(0.128622 0.277641 0)
(0.13963 0.264752 2.39023e-19)
(0.151704 0.244271 -2.41593e-19)
(0.165959 0.218619 2.46636e-19)
(0.18331 0.189996 -4.4451e-19)
(0.202824 0.1598 4.0773e-19)
(0.0359013 0.228751 -3.16702e-20)
(0.0644536 0.257598 5.62842e-20)
(0.0940977 0.279975 3.49488e-21)
(0.117282 0.301012 -9.66278e-20)
(0.131811 0.316731 0)
(0.139887 0.324846 -2.03593e-19)
(0.145583 0.323812 3.98813e-19)
(0.152369 0.312739 -2.21227e-19)
(0.161705 0.290959 1.9398e-19)
(0.173581 0.258868 1.61154e-19)
(0.187466 0.21979 3.00394e-19)
(0.202049 0.179451 -3.23732e-19)
(0.0562836 0.240691 -2.41048e-20)
(0.0918241 0.272791 2.2829e-20)
(0.122573 0.293356 7.83647e-20)
(0.142238 0.312998 1.71864e-19)
(0.149564 0.327671 -8.32385e-20)
(0.149467 0.336094 -1.68325e-19)
(0.148459 0.337717 -6.15585e-21)
(0.150877 0.332142 -3.3048e-19)
(0.157931 0.317841 4.1767e-21)
(0.168347 0.291906 -5.18552e-19)
(0.179473 0.253089 -8.88514e-21)
(0.189157 0.205401 1.75901e-19)
(0.0723167 0.248261 6.88483e-22)
(0.111818 0.276435 1.71451e-20)
(0.140099 0.287377 -1.08636e-19)
(0.153229 0.298522 0)
(0.151262 0.305675 7.47658e-20)
(0.142192 0.30929 7.41541e-20)
(0.134936 0.310632 5.30384e-21)
(0.133568 0.309185 0)
(0.13867 0.302955 2.03818e-20)
(0.148681 0.289722 1.11051e-19)
(0.160342 0.266283 -1.40186e-19)
(0.16952 0.230603 -5.51046e-21)
(0.0782451 0.252061 3.29222e-20)
(0.118727 0.272824 -2.90312e-20)
(0.143542 0.268017 8.79292e-20)
(0.151053 0.267437 5.56383e-20)
(0.141195 0.266354 -6.96937e-20)
(0.125217 0.266952 -2.1277e-19)
(0.113633 0.269331 1.47973e-19)
(0.109152 0.269601 1.18638e-19)
(0.111665 0.265584 2.012e-19)
(0.119499 0.25716 -2.40049e-19)
(0.130289 0.244045 1.91964e-20)
(0.14104 0.22459 1.68835e-20)
(0.0713055 0.257391 -1.42988e-20)
(0.11539 0.261329 0)
(0.133896 0.244452 3.80641e-20)
(0.137741 0.230612 -1.07603e-19)
(0.125738 0.222659 1.09377e-19)
(0.107498 0.221712 1.31283e-19)
(0.0923742 0.225095 1.14607e-19)
(0.0848572 0.227889 -2.17695e-19)
(0.0852855 0.227075 0)
(0.0909736 0.221768 1.60689e-20)
(0.0989492 0.211933 0)
(0.107481 0.197656 0)
(0.0332848 0.283227 0)
(0.0930551 0.263411 0)
(0.115942 0.229232 -3.57834e-20)
(0.118859 0.199596 7.0656e-20)
(0.10697 0.182236 -9.85933e-20)
(0.0876795 0.176154 -2.00222e-19)
(0.0695543 0.177315 1.01474e-19)
(0.0596391 0.181101 0)
(0.0587609 0.183659 0)
(0.0633266 0.183138 1.02772e-19)
(0.0698859 0.179011 8.67089e-20)
(0.0767397 0.170528 -2.46367e-20)
(0.109356 0.0883114 6.56826e-19)
(0.111019 0.0845392 -9.22465e-19)
(0.112458 0.0785431 9.5606e-21)
(0.113487 0.0699614 2.69645e-19)
(0.112782 0.0595447 -2.43966e-19)
(0.110228 0.0488586 1.20941e-19)
(0.107176 0.0381744 -3.55238e-19)
(0.105194 0.0269852 1.20181e-19)
(0.105953 0.0154902 -1.1388e-19)
(0.111217 0.00412604 5.63505e-20)
(0.12035 -0.00730601 -8.57535e-20)
(0.127415 -0.0136438 7.20209e-20)
(0.113063 0.11196 -2.31263e-19)
(0.12296 0.110837 -2.03937e-19)
(0.13484 0.107044 0)
(0.142494 0.104437 3.97996e-19)
(0.145762 0.100174 -4.79528e-19)
(0.14681 0.092101 1.86366e-19)
(0.146664 0.0787767 4.07997e-19)
(0.145369 0.0598552 4.22401e-19)
(0.143104 0.037105 -1.05402e-19)
(0.140537 0.0137657 -3.60399e-21)
(0.142699 -0.00603616 2.58096e-20)
(0.143595 -0.0106091 -1.26467e-20)
(0.150095 0.116282 1.70384e-19)
(0.169673 0.114924 1.69958e-20)
(0.185103 0.116082 -3.11115e-19)
(0.194937 0.119228 1.47115e-19)
(0.201781 0.120866 4.54072e-19)
(0.206743 0.117052 -4.47463e-19)
(0.208249 0.105247 -1.37788e-19)
(0.205366 0.0842518 -2.36693e-19)
(0.197025 0.0549726 1.62301e-19)
(0.183715 0.0228359 -1.24952e-19)
(0.171246 -0.0014934 4.41987e-21)
(0.160838 -0.00655629 4.104e-20)
(0.187713 0.123788 1.23097e-19)
(0.210055 0.121263 -1.26597e-19)
(0.225895 0.124919 0)
(0.237769 0.131335 0)
(0.247673 0.136517 -3.21567e-19)
(0.255546 0.138411 -9.96058e-20)
(0.259702 0.135061 3.29666e-19)
(0.2574 0.122995 1.06701e-20)
(0.245617 0.099516 -1.63609e-19)
(0.223281 0.0648215 0)
(0.195086 0.0265418 6.61529e-20)
(0.174043 0.00362427 -1.78006e-20)
(0.213164 0.128236 3.01174e-20)
(0.231781 0.119377 0)
(0.243561 0.118142 0)
(0.252939 0.121584 0)
(0.262039 0.127728 9.47095e-20)
(0.270391 0.135013 9.31269e-20)
(0.27721 0.140749 7.21244e-20)
(0.280889 0.142634 9.85644e-21)
(0.277198 0.136499 1.93489e-19)
(0.261812 0.116607 -3.60474e-20)
(0.233044 0.0764216 2.82987e-21)
(0.195563 0.018165 -5.07564e-20)
(0.221045 0.132873 3.56523e-19)
(0.232268 0.114771 2.81855e-20)
(0.236573 0.105506 0)
(0.238576 0.102322 0)
(0.240587 0.103511 -1.34948e-19)
(0.244483 0.108802 1.36433e-19)
(0.251853 0.117636 -7.39248e-20)
(0.260902 0.127765 -5.29537e-20)
(0.269082 0.137654 -6.76342e-20)
(0.27121 0.141637 3.29773e-20)
(0.262894 0.123253 1.73035e-20)
(0.23699 0.0532524 2.19781e-21)
(0.213239 0.142476 -2.81973e-20)
(0.217176 0.114787 -9.40111e-20)
(0.214837 0.0973821 2.28797e-20)
(0.210961 0.0880953 1.00299e-19)
(0.207921 0.084595 -1.85628e-19)
(0.207169 0.0852463 0)
(0.209714 0.0888887 -4.94939e-20)
(0.218579 0.0961985 1.03497e-19)
(0.231386 0.108291 0)
(0.245304 0.126109 -3.15027e-20)
(0.25913 0.141117 0)
(0.268848 0.0992114 2.32734e-21)
(0.195408 0.159343 -2.54847e-20)
(0.194511 0.122817 -5.52228e-20)
(0.188533 0.0969698 1.38422e-19)
(0.181924 0.0811883 -1.1708e-19)
(0.177471 0.0733864 1.31217e-19)
(0.176567 0.0710539 0)
(0.179542 0.0720878 -1.46512e-20)
(0.186922 0.0756796 -2.6844e-20)
(0.198585 0.0821779 0)
(0.213922 0.0935619 4.27403e-20)
(0.2324 0.119063 -1.08071e-20)
(0.274511 0.119489 6.31932e-21)
(0.173572 0.18524 -1.0898e-19)
(0.171429 0.140364 9.398e-20)
(0.164593 0.104332 0)
(0.156947 0.0799862 0)
(0.152092 0.066143 0)
(0.151874 0.0597556 0)
(0.15648 0.057652 2.29168e-20)
(0.165301 0.0584347 -9.87625e-21)
(0.17831 0.0625404 -1.62663e-21)
(0.196301 0.0713708 -1.78108e-21)
(0.21574 0.0878749 -1.32453e-21)
(0.264354 0.105044 -3.51151e-21)
(0.14829 0.196673 -5.18156e-21)
(0.14969 0.160948 0)
(0.145397 0.122509 -4.64476e-21)
(0.138394 0.0885054 0)
(0.132785 0.0641683 1.41414e-22)
(0.131695 0.0501828 0)
(0.136414 0.0438387 9.14503e-21)
(0.146657 0.0418695 7.7586e-23)
(0.16141 0.0426368 1.50112e-21)
(0.181866 0.0471833 0)
(0.207166 0.0595323 2.93874e-21)
(0.253672 0.0720686 1.67778e-21)
(0.115574 0.179185 4.28307e-20)
(0.121742 0.156796 6.10888e-21)
(0.124365 0.130654 4.1649e-21)
(0.123096 0.101702 -2.77317e-20)
(0.119642 0.0729741 6.26855e-21)
(0.11729 0.0491997 0)
(0.119396 0.0335398 1.18756e-20)
(0.127873 0.0254307 1.43803e-20)
(0.143072 0.022225 2.77236e-20)
(0.165557 0.0216264 0)
(0.193089 0.0253682 0)
(0.242322 0.025921 2.05431e-24)
(0.083451 0.157039 -2.0699e-20)
(0.0899971 0.139338 1.27422e-20)
(0.0962174 0.119468 -2.56825e-20)
(0.101564 0.098749 1.93639e-20)
(0.105123 0.0769046 5.14124e-20)
(0.106593 0.0539229 2.24745e-20)
(0.107702 0.0322419 -2.43246e-20)
(0.111884 0.0152882 -3.41463e-20)
(0.122157 0.00398685 -2.50227e-20)
(0.141934 -0.00412248 1.9659e-20)
(0.170736 -0.0137756 -2.58014e-20)
(0.233074 -0.0491731 -2.28968e-24)
(0.132546 -0.0180136 3.80207e-20)
(0.132725 -0.0293014 -1.59317e-19)
(0.129603 -0.0325499 1.58163e-19)
(0.122981 -0.036873 2.32059e-19)
(0.115391 -0.0428664 -1.5656e-19)
(0.108762 -0.0503753 0)
(0.103421 -0.0594445 5.9251e-19)
(0.0993836 -0.0692 -4.49022e-19)
(0.0966018 -0.0793556 0)
(0.0947418 -0.0893865 -4.26354e-19)
(0.0932183 -0.0984546 -1.33301e-19)
(0.0912606 -0.105382 0)
(0.148905 -0.00396595 1.57498e-20)
(0.149099 -0.00196982 1.33602e-19)
(0.14411 -0.0028089 -1.3164e-19)
(0.138114 -0.00990359 3.89587e-19)
(0.132466 -0.0216405 -2.63457e-19)
(0.126546 -0.0351145 0)
(0.120925 -0.0485571 -2.55685e-19)
(0.116168 -0.062248 3.80915e-19)
(0.112213 -0.0758565 0)
(0.109472 -0.0885845 -2.27941e-19)
(0.108634 -0.0992679 9.6355e-19)
(0.110016 -0.106931 -2.29363e-19)
(0.160391 -0.0104623 -2.96738e-20)
(0.161095 -0.00505366 -5.79592e-20)
(0.158222 -0.0077508 2.33311e-19)
(0.155425 -0.0198344 -3.52058e-19)
(0.152611 -0.0366345 -1.20068e-19)
(0.149085 -0.0545977 -2.36662e-19)
(0.144401 -0.0718342 -2.41872e-19)
(0.137979 -0.0873418 0)
(0.130838 -0.101173 4.43312e-19)
(0.124226 -0.113532 -2.28852e-19)
(0.119575 -0.124378 -1.05911e-20)
(0.117673 -0.13522 -3.81343e-19)
(0.178442 -0.00373928 1.16543e-20)
(0.182931 -0.000377245 3.08989e-21)
(0.185417 -0.0133474 9.99704e-20)
(0.189042 -0.0333175 1.08152e-19)
(0.190902 -0.0536389 -6.26563e-21)
(0.189224 -0.0722283 -1.99079e-19)
(0.18358 -0.0893774 -1.88643e-19)
(0.174584 -0.105323 2.07398e-19)
(0.163217 -0.120152 -1.82365e-19)
(0.15118 -0.133954 -1.84949e-19)
(0.140386 -0.147912 -5.01238e-19)
(0.131177 -0.165622 -1.11438e-19)
(0.196187 -0.00648024 -2.28665e-20)
(0.207272 -0.0136717 8.74646e-20)
(0.21712 -0.0345981 8.43157e-20)
(0.226746 -0.0568943 9.00089e-20)
(0.232345 -0.0766275 -1.74632e-19)
(0.232388 -0.0936238 -8.04728e-21)
(0.226558 -0.10868 1.70895e-19)
(0.215495 -0.122721 1.67801e-19)
(0.20043 -0.136567 1.62777e-19)
(0.182759 -0.151385 -2.87722e-19)
(0.163583 -0.168991 2.84671e-19)
(0.144184 -0.190845 3.48816e-20)
(0.213524 -0.0172585 -7.20455e-20)
(0.233802 -0.0358108 -1.74177e-21)
(0.251035 -0.0614654 1.38452e-19)
(0.266938 -0.0847347 -1.3339e-19)
(0.277722 -0.102897 0)
(0.281319 -0.116708 -1.38798e-19)
(0.276584 -0.128275 0)
(0.263473 -0.139605 0)
(0.242935 -0.15203 0)
(0.217314 -0.166668 0)
(0.188788 -0.184421 2.08184e-19)
(0.158843 -0.204053 7.09796e-21)
(0.228779 -0.0356789 1.61992e-20)
(0.257607 -0.0639734 2.8572e-20)
(0.280022 -0.0933735 -1.00023e-19)
(0.301039 -0.116402 -9.71693e-20)
(0.31665 -0.130954 -1.02736e-19)
(0.324546 -0.139236 1.03407e-19)
(0.323195 -0.145265 0)
(0.311704 -0.152413 0)
(0.289439 -0.162068 0)
(0.257053 -0.174199 0)
(0.218143 -0.188337 3.02028e-19)
(0.17817 -0.203057 -1.67539e-19)
(0.240734 -0.0560951 -1.30653e-20)
(0.272892 -0.0914178 -4.18857e-20)
(0.293616 -0.121932 1.19694e-20)
(0.313382 -0.14145 1.06848e-20)
(0.328128 -0.148831 0)
(0.336532 -0.148996 -1.63935e-19)
(0.337997 -0.14836 0)
(0.332081 -0.151171 1.49562e-19)
(0.31722 -0.15855 -2.80528e-19)
(0.29061 -0.169122 -1.15605e-19)
(0.251189 -0.180163 -2.41375e-19)
(0.203446 -0.189761 8.26132e-20)
(0.248319 -0.0721961 0)
(0.276589 -0.111536 1.08335e-19)
(0.287742 -0.139608 3.97759e-20)
(0.299051 -0.152609 7.54249e-20)
(0.306324 -0.150722 0)
(0.310016 -0.141933 3.1603e-19)
(0.311357 -0.135032 -3.01651e-19)
(0.309773 -0.134015 1.41461e-19)
(0.303249 -0.139419 1.28468e-19)
(0.289481 -0.149617 2.3069e-20)
(0.265267 -0.161246 7.08106e-20)
(0.228985 -0.170066 -2.26945e-20)
(0.252139 -0.0781804 -7.78874e-22)
(0.272988 -0.118566 -1.66461e-20)
(0.268418 -0.143206 0)
(0.267996 -0.150578 6.46994e-20)
(0.267026 -0.140782 -1.99219e-19)
(0.267656 -0.125053 0)
(0.269956 -0.113757 -1.3586e-19)
(0.270076 -0.109561 1.30435e-20)
(0.26588 -0.112312 1.92985e-19)
(0.257243 -0.120306 -5.99065e-20)
(0.243813 -0.131124 1.58033e-19)
(0.223937 -0.141669 -1.50869e-19)
(0.25744 -0.0713661 -1.43848e-20)
(0.261531 -0.115387 -1.84963e-20)
(0.244853 -0.13373 0)
(0.231178 -0.137426 0)
(0.223343 -0.125417 6.33149e-20)
(0.222424 -0.107326 3.06959e-19)
(0.225731 -0.092449 -2.43692e-19)
(0.228364 -0.0852029 2.1301e-19)
(0.227336 -0.0858232 -8.22282e-20)
(0.221791 -0.0915865 -3.58881e-20)
(0.211721 -0.0995358 -4.30524e-20)
(0.197243 -0.10796 4.53516e-20)
(0.283369 -0.0334022 -2.28778e-24)
(0.263669 -0.0931658 -6.22282e-21)
(0.229625 -0.115877 2.69894e-20)
(0.200119 -0.118652 0)
(0.182857 -0.106712 0)
(0.176817 -0.0875097 -1.07817e-19)
(0.177941 -0.0696179 1.00041e-20)
(0.181605 -0.0599661 -1.71526e-19)
(0.183981 -0.0592485 1.12037e-19)
(0.18326 -0.063852 4.59976e-20)
(0.178929 -0.0703611 0)
(0.170245 -0.0771008 -4.04379e-20)
(0.0884494 -0.109322 2.59378e-19)
(0.0846994 -0.111005 2.69651e-19)
(0.07868 -0.112561 -1.17093e-18)
(0.070014 -0.113735 6.43681e-19)
(0.0595504 -0.113113 0)
(0.0489273 -0.110582 1.21436e-19)
(0.0383277 -0.107509 1.15862e-19)
(0.0271823 -0.105479 1.19482e-19)
(0.015679 -0.106164 -2.92947e-19)
(0.00427961 -0.111365 0)
(-0.00722194 -0.120434 2.82231e-20)
(-0.013618 -0.127433 1.44839e-20)
(0.112299 -0.113459 2.1889e-19)
(0.111037 -0.123768 -4.01525e-19)
(0.107344 -0.135839 4.13692e-19)
(0.104882 -0.143417 0)
(0.100603 -0.146661 -1.87145e-19)
(0.0924896 -0.1477 1.89361e-19)
(0.0791253 -0.14751 -1.05456e-19)
(0.0601731 -0.146135 1.08848e-19)
(0.0373711 -0.143717 0)
(0.0140251 -0.140948 5.29118e-20)
(-0.00580048 -0.14289 -1.7718e-19)
(-0.0104217 -0.143638 6.11182e-20)
(0.116547 -0.151181 0)
(0.1153 -0.170983 1.73389e-19)
(0.116614 -0.186387 -3.1074e-19)
(0.119803 -0.196232 3.07427e-19)
(0.121422 -0.20314 1.56588e-19)
(0.117635 -0.208108 2.75994e-19)
(0.105917 -0.209543 -1.58917e-19)
(0.0850247 -0.206486 1.54966e-19)
(0.0557718 -0.197836 -1.62079e-19)
(0.023516 -0.18416 -1.1498e-19)
(-0.000977512 -0.171311 8.16798e-20)
(-0.00627875 -0.160811 2.09152e-20)
(0.123815 -0.189162 5.50415e-19)
(0.121552 -0.211429 -2.46222e-19)
(0.125334 -0.227131 2.41774e-19)
(0.131759 -0.238977 0)
(0.136978 -0.248842 0)
(0.138983 -0.256624 -1.17736e-19)
(0.135832 -0.260683 -9.71668e-21)
(0.124058 -0.258282 9.90097e-20)
(0.100905 -0.2464 -1.12534e-19)
(0.0663841 -0.22394 6.48736e-20)
(0.0277743 -0.195441 -5.06938e-21)
(0.00394773 -0.174023 8.86187e-21)
(0.127979 -0.21451 -2.35976e-19)
(0.119425 -0.2328 1.90188e-19)
(0.118295 -0.244293 -1.88746e-19)
(0.121721 -0.253465 0)
(0.127845 -0.26234 0)
(0.135167 -0.270496 7.54296e-20)
(0.141045 -0.277202 0)
(0.143238 -0.280894 -9.80352e-21)
(0.13759 -0.277352 -7.91282e-20)
(0.118203 -0.262219 0)
(0.0780403 -0.233671 -4.8067e-21)
(0.0186892 -0.195979 -6.26609e-24)
(0.13232 -0.222057 0)
(0.114599 -0.232803 1.42462e-20)
(0.105515 -0.236732 -1.47844e-19)
(0.102365 -0.238437 1.36353e-19)
(0.103509 -0.240148 -3.94111e-19)
(0.108706 -0.243775 6.01446e-20)
(0.117494 -0.250968 5.67222e-20)
(0.127707 -0.259982 5.33837e-20)
(0.137892 -0.268293 0)
(0.14246 -0.270749 0)
(0.12474 -0.262976 -1.73427e-20)
(0.0545087 -0.237632 -8.01334e-21)
(0.141624 -0.213888 2.53705e-19)
(0.114429 -0.217329 1.19734e-19)
(0.0973637 -0.214641 -1.09348e-19)
(0.0882534 -0.210524 0)
(0.0848127 -0.207294 1.2029e-19)
(0.0854322 -0.206413 8.56393e-20)
(0.0890246 -0.208895 -1.42554e-19)
(0.0962198 -0.217643 -5.65766e-20)
(0.108223 -0.230396 0)
(0.126156 -0.244379 2.0406e-20)
(0.141765 -0.258457 -3.02703e-20)
(0.100427 -0.269054 1.83771e-20)
(0.158079 -0.195752 -2.52677e-20)
(0.122184 -0.194431 0)
(0.096854 -0.188195 6.10467e-20)
(0.0814148 -0.181469 4.40213e-20)
(0.0737779 -0.176968 -9.02714e-22)
(0.0714675 -0.176059 -8.82587e-20)
(0.0724472 -0.179039 5.78043e-20)
(0.0759753 -0.186421 -4.65332e-20)
(0.0824403 -0.198069 -4.06989e-20)
(0.0937338 -0.213407 2.36347e-20)
(0.119162 -0.231715 0)
(0.12016 -0.274319 1.91648e-21)
(0.183542 -0.173734 -5.16156e-20)
(0.139208 -0.171235 4.34549e-20)
(0.103849 -0.1642 0)
(0.0800448 -0.156529 -1.28363e-20)
(0.0665212 -0.151748 -5.63009e-20)
(0.0602411 -0.15162 -2.07432e-20)
(0.0581053 -0.156283 6.48548e-20)
(0.0588116 -0.165118 2.81088e-20)
(0.0628516 -0.178112 1.53386e-20)
(0.0716763 -0.196117 1.99578e-21)
(0.0881789 -0.215537 8.43259e-22)
(0.105352 -0.264143 -2.65422e-21)
(0.195641 -0.148545 -2.04278e-20)
(0.159821 -0.149558 3.7831e-20)
(0.121657 -0.145014 6.66115e-21)
(0.0881466 -0.137969 1.08519e-20)
(0.0642679 -0.132467 -7.9711e-21)
(0.0505636 -0.131534 -1.60175e-20)
(0.0443158 -0.136383 -3.02595e-21)
(0.0423231 -0.146689 -9.64037e-21)
(0.043029 -0.161438 0)
(0.0475098 -0.181865 -1.87127e-21)
(0.0598232 -0.207098 0)
(0.072352 -0.25359 -6.33963e-21)
(0.178621 -0.115868 -6.86609e-21)
(0.156137 -0.121779 -8.26115e-21)
(0.130008 -0.124149 -6.54777e-21)
(0.101221 -0.122742 -2.19379e-20)
(0.072783 -0.119306 6.33074e-21)
(0.0493123 -0.117083 5.29349e-21)
(0.0338621 -0.119344 -1.12187e-20)
(0.0258444 -0.127938 0)
(0.0226448 -0.143189 0)
(0.0220238 -0.165669 0)
(0.0257544 -0.193111 7.1497e-21)
(0.0261797 -0.242276 8.09158e-21)
(0.156601 -0.0836582 8.31627e-21)
(0.13883 -0.090037 3.71953e-21)
(0.118981 -0.0961003 7.04303e-21)
(0.0983495 -0.101327 1.76334e-20)
(0.0766402 -0.104836 -1.47014e-20)
(0.0538452 -0.106348 4.02475e-21)
(0.0323679 -0.107566 3.30252e-20)
(0.0155719 -0.111866 2.3543e-20)
(0.00435647 -0.122222 0)
(-0.00370772 -0.14203 0)
(-0.0133589 -0.17083 2.55533e-20)
(-0.048942 -0.233161 -1.54175e-21)
(-0.0182647 -0.134457 9.8362e-21)
(-0.0283916 -0.132597 4.00598e-20)
(-0.0331689 -0.129735 0)
(-0.0373909 -0.123054 3.84473e-19)
(-0.0431903 -0.115681 -3.79767e-19)
(-0.0505878 -0.109176 0)
(-0.0595954 -0.103813 -1.49483e-19)
(-0.0693057 -0.099663 0)
(-0.0794099 -0.096765 -5.78203e-19)
(-0.0893974 -0.094808 7.22507e-19)
(-0.0984437 -0.0932161 0)
(-0.105389 -0.0912157 -9.52507e-19)
(-0.00429515 -0.149482 3.38551e-20)
(-0.00194809 -0.14939 6.7316e-20)
(-0.00320218 -0.144483 -1.97411e-19)
(-0.0101462 -0.138397 -5.24185e-19)
(-0.021652 -0.132748 1.33523e-19)
(-0.0350056 -0.126881 3.88972e-19)
(-0.0483927 -0.121262 -2.56504e-19)
(-0.0620234 -0.116465 5.00636e-19)
(-0.0755922 -0.11244 -5.02042e-19)
(-0.0883061 -0.109601 -2.50252e-19)
(-0.0990191 -0.108636 2.35143e-19)
(-0.106735 -0.109866 4.50757e-19)
(-0.0108232 -0.160527 4.43102e-20)
(-0.00534687 -0.161086 0)
(-0.008153 -0.15825 5.87798e-20)
(-0.0200766 -0.155448 3.53823e-19)
(-0.0366959 -0.152717 -4.76299e-19)
(-0.0545418 -0.149289 3.56977e-19)
(-0.0717298 -0.144671 7.17824e-19)
(-0.0872054 -0.138269 -4.73424e-19)
(-0.100986 -0.13108 4.4399e-19)
(-0.113287 -0.124378 -4.39132e-19)
(-0.124082 -0.11959 -1.90828e-19)
(-0.134756 -0.117547 1.95888e-19)
(-0.00407133 -0.178329 -3.99641e-20)
(-0.000704398 -0.182879 5.11488e-20)
(-0.013604 -0.185373 0)
(-0.0335337 -0.189065 0)
(-0.0538268 -0.191099 0)
(-0.0723421 -0.189609 -6.20435e-19)
(-0.0893684 -0.184108 2.10954e-19)
(-0.105193 -0.175161 1.89701e-19)
(-0.119914 -0.163765 -1.82449e-19)
(-0.133602 -0.151627 -3.51046e-19)
(-0.14737 -0.140699 6.74913e-19)
(-0.164718 -0.131377 -1.98295e-20)
(-0.00667519 -0.196108 -2.28714e-20)
(-0.0139725 -0.207231 0)
(-0.03504 -0.217114 8.24457e-20)
(-0.0574331 -0.226866 0)
(-0.0771451 -0.232663 0)
(-0.0940151 -0.23294 0)
(-0.10888 -0.227308 -1.54788e-19)
(-0.122705 -0.216351 -1.58227e-19)
(-0.13634 -0.201279 1.76241e-19)
(-0.150922 -0.183545 1.71367e-20)
(-0.168194 -0.164275 2.01529e-20)
(-0.189749 -0.14473 4.88454e-19)
(-0.0174572 -0.213475 -8.99856e-24)
(-0.0362253 -0.233798 7.20053e-20)
(-0.062084 -0.251059 -1.41088e-19)
(-0.0855019 -0.267073 -1.25792e-19)
(-0.103661 -0.278058 1.24102e-19)
(-0.117323 -0.281927 1.23599e-19)
(-0.128643 -0.27749 2.46115e-19)
(-0.139676 -0.26461 -1.1819e-20)
(-0.151777 -0.244145 2.55762e-19)
(-0.166075 -0.218505 2.20389e-19)
(-0.183484 -0.189889 0)
(-0.203027 -0.159713 -3.872e-19)
(-0.0358584 -0.228748 -1.43575e-20)
(-0.0643846 -0.257583 -5.31633e-20)
(-0.0940365 -0.279947 0)
(-0.117253 -0.30098 2.0761e-19)
(-0.131821 -0.3167 -2.06469e-19)
(-0.139928 -0.324808 -1.10228e-19)
(-0.145649 -0.323757 -1.85217e-20)
(-0.152456 -0.312648 -3.93031e-20)
(-0.16181 -0.290817 1.59605e-19)
(-0.173705 -0.25869 -3.87427e-19)
(-0.187619 -0.219621 0)
(-0.202218 -0.179313 3.03317e-19)
(-0.0562407 -0.240706 2.47391e-20)
(-0.0917659 -0.27282 6.19647e-21)
(-0.122548 -0.293408 0)
(-0.142271 -0.313086 -1.67209e-19)
(-0.149651 -0.3278 5.6557e-21)
(-0.149585 -0.336247 2.55007e-19)
(-0.148587 -0.337864 -3.33628e-19)
(-0.151012 -0.33224 -1.70519e-19)
(-0.158074 -0.317857 -1.58939e-19)
(-0.168489 -0.291816 0)
(-0.1796 -0.252901 0)
(-0.189271 -0.205185 -9.20722e-20)
(-0.072299 -0.248287 8.14934e-21)
(-0.111793 -0.276497 5.74717e-21)
(-0.140124 -0.287476 -6.39226e-20)
(-0.153323 -0.29867 6.98334e-20)
(-0.151405 -0.305867 -6.99041e-20)
(-0.142346 -0.309506 1.5253e-19)
(-0.13508 -0.310849 5.31208e-21)
(-0.133699 -0.309384 -1.26522e-19)
(-0.138802 -0.303107 2.33429e-19)
(-0.148816 -0.289789 8.8856e-20)
(-0.160466 -0.266232 0)
(-0.169599 -0.230447 -5.20302e-20)
(-0.0782714 -0.252093 -2.90181e-21)
(-0.118745 -0.272888 3.19471e-20)
(-0.14361 -0.268107 6.26544e-20)
(-0.151182 -0.267559 -1.31342e-19)
(-0.141352 -0.266492 1.5058e-19)
(-0.125349 -0.267085 -3.61211e-19)
(-0.11373 -0.26946 1.48793e-19)
(-0.109223 -0.269725 1.19438e-19)
(-0.111728 -0.265687 -1.90175e-20)
(-0.119568 -0.257225 -1.81813e-19)
(-0.130363 -0.24406 0)
(-0.141094 -0.224544 1.71668e-19)
(-0.0713793 -0.2574 -1.43722e-20)
(-0.115429 -0.261378 2.18141e-20)
(-0.133969 -0.244496 -5.97682e-20)
(-0.137862 -0.23066 0)
(-0.125862 -0.222699 1.2675e-20)
(-0.107579 -0.221736 1.3205e-19)
(-0.0924079 -0.225123 1.18884e-19)
(-0.0848586 -0.227926 -1.0829e-19)
(-0.0852734 -0.227106 2.30292e-19)
(-0.0909618 -0.221768 -1.89067e-20)
(-0.0989392 -0.211893 -1.31118e-19)
(-0.107466 -0.197585 -6.12997e-20)
(-0.0333318 -0.283209 -2.29058e-24)
(-0.0930851 -0.263417 1.55538e-20)
(-0.115999 -0.229216 -5.85634e-21)
(-0.118949 -0.199561 -4.22638e-20)
(-0.107058 -0.182183 5.30565e-20)
(-0.0877339 -0.176087 1.98003e-21)
(-0.0695589 -0.177256 -2.06218e-19)
(-0.0595996 -0.181059 -1.64178e-19)
(-0.0586997 -0.183626 -3.27496e-19)
(-0.0632646 -0.183094 5.76796e-20)
(-0.0698281 -0.178941 1.59483e-19)
(-0.0766764 -0.170429 -2.52875e-20)
(-0.109376 -0.0883637 8.21529e-19)
(-0.111045 -0.0845868 -5.34353e-19)
(-0.112509 -0.0785818 3.79431e-19)
(-0.113567 -0.0699846 0)
(-0.112881 -0.0595582 1.20119e-19)
(-0.110334 -0.0488803 0)
(-0.107281 -0.0382096 -3.53385e-19)
(-0.10529 -0.0270282 5.28883e-19)
(-0.106031 -0.0155311 -2.92833e-19)
(-0.111273 -0.00416012 -1.73059e-19)
(-0.120381 0.00728528 1.17264e-19)
(-0.127423 0.0136321 1.34593e-20)
(-0.11316 -0.112075 -4.14197e-21)
(-0.123136 -0.110907 2.04574e-19)
(-0.135049 -0.107123 -2.14952e-19)
(-0.142689 -0.104535 0)
(-0.145953 -0.100262 8.48268e-20)
(-0.147001 -0.0921797 -1.89948e-19)
(-0.146851 -0.0788518 1.0573e-19)
(-0.145545 -0.0599344 3.14447e-19)
(-0.143252 -0.0371848 -2.15901e-19)
(-0.140642 -0.0138476 0)
(-0.142749 0.00596146 -4.95342e-20)
(-0.143608 0.0105465 2.40436e-20)
(-0.150305 -0.116378 3.36909e-19)
(-0.169915 -0.115025 -5.15411e-19)
(-0.185333 -0.116199 0)
(-0.195167 -0.119341 3.04244e-19)
(-0.202024 -0.120962 -4.55372e-19)
(-0.206992 -0.117144 1.55503e-19)
(-0.208491 -0.105356 1.3822e-19)
(-0.205583 -0.0843956 -8.16809e-20)
(-0.197189 -0.0551438 0)
(-0.183811 -0.0230024 0)
(-0.171261 0.00135492 -4.08753e-20)
(-0.160833 0.00647182 4.12062e-20)
(-0.187963 -0.123848 -7.10428e-19)
(-0.210291 -0.121356 1.55502e-20)
(-0.226107 -0.125022 1.07259e-20)
(-0.23798 -0.131425 2.30711e-19)
(-0.247884 -0.136595 0)
(-0.255747 -0.13849 -2.17104e-19)
(-0.259889 -0.135171 -1.83832e-21)
(-0.25757 -0.12317 -9.86228e-20)
(-0.24577 -0.0997784 0)
(-0.223417 -0.0651502 -5.95312e-20)
(-0.195164 -0.026825 9.63453e-20)
(-0.174041 -0.0037197 -1.78675e-20)
(-0.213394 -0.128252 -2.10836e-19)
(-0.231961 -0.119438 1.54223e-20)
(-0.243698 -0.118213 1.03376e-20)
(-0.253051 -0.121638 1.78908e-19)
(-0.262121 -0.12776 -7.73422e-20)
(-0.270444 -0.135033 0)
(-0.277241 -0.140783 2.44705e-19)
(-0.280916 -0.142727 8.9565e-20)
(-0.277247 -0.136702 -1.49721e-19)
(-0.261908 -0.116936 0)
(-0.233186 -0.0767811 0)
(-0.195658 -0.018308 -2.56021e-20)
(-0.221225 -0.132843 -3.1147e-19)
(-0.232376 -0.114802 2.81731e-20)
(-0.236623 -0.105561 0)
(-0.238582 -0.102371 0)
(-0.240547 -0.103538 7.72125e-20)
(-0.244396 -0.108798 1.36079e-19)
(-0.251729 -0.117609 -2.05201e-19)
(-0.260759 -0.127748 8.41701e-21)
(-0.268952 -0.137701 8.66849e-21)
(-0.271136 -0.141817 -2.90623e-20)
(-0.262927 -0.123592 4.56574e-20)
(-0.237141 -0.0535578 -7.42582e-21)
(-0.213362 -0.142398 2.20213e-20)
(-0.217221 -0.114787 -2.01094e-21)
(-0.214824 -0.0974338 6.69897e-21)
(-0.210909 -0.0881671 1.04387e-19)
(-0.207836 -0.0846638 0)
(-0.207056 -0.085298 0)
(-0.209577 -0.0889225 4.99158e-20)
(-0.21841 -0.0962034 8.73429e-21)
(-0.231197 -0.108279 3.48833e-20)
(-0.24512 -0.126131 -3.1845e-20)
(-0.258993 -0.141289 -1.06818e-20)
(-0.268907 -0.0995262 1.6069e-20)
(-0.195479 -0.159204 2.0164e-19)
(-0.19451 -0.122767 -1.45694e-19)
(-0.188485 -0.0969979 0)
(-0.181855 -0.0812667 -1.34457e-20)
(-0.17739 -0.0734837 1.3829e-20)
(-0.176479 -0.0711456 5.69988e-20)
(-0.179445 -0.0721627 -8.50445e-20)
(-0.186816 -0.0757417 2.72061e-20)
(-0.198469 -0.0822323 -4.04215e-20)
(-0.213803 -0.0936004 2.97764e-20)
(-0.232236 -0.119106 4.77196e-21)
(-0.274473 -0.119691 -6.39375e-21)
(-0.173596 -0.185051 -1.03842e-19)
(-0.171394 -0.140234 3.325e-20)
(-0.164523 -0.104298 5.46835e-20)
(-0.15687 -0.080035 -3.15135e-20)
(-0.152026 -0.0662406 -1.53275e-20)
(-0.15182 -0.0598662 5.41138e-20)
(-0.156432 -0.0577523 -1.15823e-20)
(-0.165248 -0.0585191 1.0519e-20)
(-0.178247 -0.0626117 -1.53443e-20)
(-0.196242 -0.0714393 1.31333e-20)
(-0.215669 -0.0879504 3.97035e-21)
(-0.264296 -0.105152 1.82186e-21)
(-0.148296 -0.196569 3.88896e-20)
(-0.14964 -0.160821 4.21829e-20)
(-0.145311 -0.122413 -1.30732e-20)
(-0.138303 -0.08848 2.71752e-20)
(-0.132715 -0.0642166 -1.52595e-20)
(-0.131653 -0.0502782 1.70785e-21)
(-0.136395 -0.0439486 -8.27993e-21)
(-0.146645 -0.0419714 -1.57666e-20)
(-0.161391 -0.0427262 1.42473e-20)
(-0.181839 -0.0472617 1.55425e-20)
(-0.207124 -0.0596036 -6.30782e-21)
(-0.253634 -0.0721516 2.47482e-21)
(-0.115542 -0.179097 -1.64998e-20)
(-0.121684 -0.156703 -1.46726e-20)
(-0.12428 -0.13057 -2.09666e-20)
(-0.123 -0.101645 -1.97333e-21)
(-0.119557 -0.0729631 -2.78392e-20)
(-0.117234 -0.0492413 -1.36638e-20)
(-0.119374 -0.0336217 2.24471e-20)
(-0.127875 -0.0255313 7.53028e-21)
(-0.143083 -0.0223257 -1.48927e-20)
(-0.16556 -0.021722 -1.25919e-20)
(-0.193065 -0.0254558 -4.61107e-21)
(-0.242289 -0.0259764 -1.56102e-20)
(-0.0833717 -0.156921 -2.40185e-20)
(-0.089903 -0.139218 5.17902e-22)
(-0.0961169 -0.119364 1.32414e-20)
(-0.101465 -0.0986759 -3.15188e-20)
(-0.105033 -0.0768644 6.96326e-20)
(-0.106523 -0.0539198 -4.05183e-21)
(-0.107661 -0.0322796 -1.31968e-20)
(-0.111873 -0.0153613 1.25488e-20)
(-0.122168 -0.0040808 -1.25706e-20)
(-0.141952 0.00401962 -1.17666e-20)
(-0.170748 0.0136769 1.70082e-20)
(-0.233089 0.0491368 2.36682e-20)
(-0.132547 0.0180201 -1.96245e-20)
(-0.132732 0.0293117 0)
(-0.129617 0.0325576 0)
(-0.122999 0.0368783 0)
(-0.115409 0.0428717 0)
(-0.108778 0.0503823 5.99755e-19)
(-0.103435 0.0594539 -1.34124e-18)
(-0.0993977 0.0692113 5.93289e-19)
(-0.0966168 0.0793676 -5.77196e-19)
(-0.094758 0.0893976 -1.32025e-19)
(-0.0932345 0.0984622 2.99801e-19)
(-0.0912745 0.105383 1.38195e-19)
(-0.148905 0.00398307 0)
(-0.14911 0.00198883 1.34622e-19)
(-0.144127 0.00282062 -1.31621e-19)
(-0.138132 0.0099095 2.60406e-19)
(-0.132484 0.0216448 -2.59633e-19)
(-0.126565 0.0351199 -5.1656e-19)
(-0.120943 0.0485651 7.74103e-19)
(-0.116185 0.06226 -2.50649e-19)
(-0.112231 0.0758722 -2.44872e-19)
(-0.109494 0.0886009 0)
(-0.108664 0.0992796 1.14456e-20)
(-0.110054 0.106935 4.68892e-19)
(-0.160386 0.0104859 7.3302e-20)
(-0.1611 0.00508042 -5.8382e-20)
(-0.15823 0.00776533 0)
(-0.155431 0.0198392 2.354e-19)
(-0.152615 0.0366354 -4.76435e-19)
(-0.149088 0.0545991 5.41811e-21)
(-0.144403 0.0718398 -7.17069e-19)
(-0.13798 0.087352 7.09102e-19)
(-0.130841 0.101187 -4.35113e-19)
(-0.124235 0.113549 6.47624e-19)
(-0.119597 0.124394 1.90203e-19)
(-0.117707 0.135246 -3.91982e-19)
(-0.178436 0.00377124 1.16293e-20)
(-0.182931 0.000400287 0)
(-0.185413 0.0133518 0)
(-0.189033 0.0333131 -3.09219e-19)
(-0.19089 0.0536321 2.07229e-19)
(-0.189209 0.0722226 2.10933e-19)
(-0.183563 0.0893757 -1.95252e-19)
(-0.174563 0.105328 5.76189e-19)