/*--------------------------------*- C++ -*----------------------------------*\
| =========                 |                                                 |
| \\      /  F ield         | OpenFOAM: The Open Source CFD Toolbox           |
|  \\    /   O peration     | Version:  v1806                                 |
|   \\  /    A nd           | Web:      www.OpenFOAM.com                      |
|    \\/     M anipulation  |                                                 |
\*---------------------------------------------------------------------------*/
FoamFile
{
    version     2.0;
    format      ascii;
    class       surfaceVectorField;
    location    "1";
    object      Uf;
}
// * * * * * * * * * * * * * * * * * * * * * * * * * * * * * * * * * * * * * //

dimensions      [0 1 -1 0 0 0 0];


internalField   nonuniform List<vector> 
5856
(
(0.023431 0.134097 -1.99682e-20)
(0.00776582 0.141773 -3.26177e-20)
(0.030912 0.131954 -1.99682e-20)
(0.0130678 0.141057 7.84384e-20)
(0.0352222 0.126476 0)
(0.0158876 0.137334 -6.45953e-20)
(0.040137 0.118982 -7.45483e-20)
(0.0208397 0.131271 6.32704e-20)
(0.0466761 0.111867 -1.49869e-19)
(0.0300689 0.124764 5.71044e-20)
(0.0550099 0.106322 -7.53204e-20)
(0.0415295 0.118315 -7.6721e-20)
(0.0644488 0.101754 0)
(0.052173 0.113158 3.76249e-19)
(0.0744074 0.098317 4.30487e-19)
(0.0632949 0.109114 -2.49783e-19)
(0.084486 0.0959194 6.5522e-20)
(0.0746768 0.106128 3.02273e-19)
(0.0940413 0.0941671 -6.44411e-19)
(0.0856815 0.104225 -3.70721e-19)
(0.102125 0.0924375 6.94924e-20)
(0.0954921 0.103306 -1.71398e-19)
(0.103244 0.102861 3.54842e-19)
(0.107666 0.0900447 6.76777e-19)
(0.00318249 0.150932 6.82451e-20)
(0.0103397 0.154765 -1.97449e-20)
(0.00243409 0.146185 3.55702e-20)
(0.00596549 0.154878 1.02333e-19)
(0.00641206 0.140379 -1.34999e-21)
(0.00897841 0.150656 -6.69199e-20)
(0.0157446 0.135081 1.95211e-19)
(0.0183716 0.145971 -4.60285e-20)
(0.0283176 0.12978 1.30742e-19)
(0.0318907 0.141677 2.52796e-19)
(0.0415529 0.123699 3.83378e-19)
(0.0460288 0.137326 -2.35604e-19)
(0.0551036 0.118641 1.29574e-19)
(0.061586 0.131938 5.14361e-19)
(0.0688891 0.114595 -3.81204e-19)
(0.0767787 0.125843 -4.85243e-19)
(0.0821982 0.111395 -1.26689e-19)
(0.0906555 0.119905 -1.21528e-19)
(0.0940058 0.109549 1.16439e-19)
(0.103204 0.114865 3.18175e-19)
(0.10323 0.109609 1.16439e-19)
(0.11389 0.111771 2.72284e-20)
(0.122827 0.111271 0)
(0.110096 0.111078 -1.15632e-19)
(0.00810094 0.161937 1.42854e-20)
(0.00645384 0.169329 1.1392e-21)
(0.0064947 0.158143 0)
(0.00223006 0.171905 2.4365e-20)
(0.0138092 0.155562 -1.19197e-19)
(0.0105534 0.171669 4.90789e-20)
(0.028185 0.153448 -3.63256e-21)
(0.0262496 0.172141 -1.73943e-19)
(0.0454215 0.150486 -1.22628e-19)
(0.044363 0.171883 -3.31395e-20)
(0.0630917 0.146935 -1.19414e-19)
(0.0627504 0.169371 -4.21624e-20)
(0.0795161 0.14164 -1.0995e-19)
(0.0796636 0.164431 1.86267e-20)
(0.0942568 0.13503 -2.21053e-19)
(0.0953855 0.156776 -1.40711e-19)
(0.107417 0.128213 3.33674e-19)
(0.109901 0.147381 7.51575e-21)
(0.119036 0.122479 2.19705e-19)
(0.123364 0.137658 2.38122e-19)
(0.129646 0.118852 -1.03881e-19)
(0.135857 0.129594 -1.0546e-19)
(0.149654 0.124002 -1.44262e-19)
(0.142546 0.117044 8.51921e-20)
(0.00227886 0.179786 1.15372e-20)
(0.00559749 0.187109 -4.55699e-20)
(0.00682082 0.181831 7.4577e-20)
(0.00778304 0.194861 4.52423e-20)
(0.02331 0.185989 -3.24707e-21)
(0.024368 0.201048 -3.37341e-20)
(0.0434961 0.189462 -2.06146e-19)
(0.0452656 0.207795 -1.37885e-19)
(0.0629945 0.19018 5.11288e-20)
(0.0651767 0.211722 -1.47962e-19)
(0.0808145 0.186873 9.9186e-20)
(0.0829384 0.211085 2.04123e-19)
(0.0973131 0.179828 -1.06247e-20)
(0.0988926 0.205512 -2.80038e-20)
(0.112633 0.169735 9.45487e-20)
(0.113697 0.195575 1.69188e-19)
(0.126894 0.158028 -9.23457e-20)
(0.127965 0.182299 -1.56684e-19)
(0.140629 0.146467 -9.23457e-20)
(0.142334 0.16719 -9.36313e-20)
(0.15622 0.136377 -1.46487e-19)
(0.157918 0.15199 1.26619e-19)
(0.177123 0.137703 -2.50028e-19)
(0.176681 0.12812 -8.49388e-20)
(0.0102286 0.200308 -1.33141e-20)
(0.0111802 0.204725 -6.03825e-21)
(0.0242754 0.210354 -6.56561e-20)
(0.0243796 0.220441 1.43002e-21)
(0.0460968 0.221294 -1.70966e-19)
(0.0475516 0.234085 -8.19744e-20)
(0.0671732 0.229417 -7.93143e-20)
(0.0702941 0.247047 -8.63443e-20)
(0.0854953 0.232688 3.46382e-21)
(0.0892329 0.255491 7.79979e-20)
(0.101383 0.230138 7.6534e-20)
(0.104678 0.25756 -7.33128e-20)
(0.115745 0.221918 1.54533e-19)
(0.118157 0.25241 8.09585e-20)
(0.129442 0.208864 -8.41226e-20)
(0.130797 0.240414 1.93536e-19)
(0.143547 0.192483 -1.58896e-19)
(0.143841 0.222567 -2.80181e-19)
(0.159634 0.174226 1.28406e-19)
(0.15836 0.200839 1.21734e-19)
(0.179393 0.155229 2.74604e-20)
(0.175385 0.17715 -9.05858e-20)
(0.195728 0.152523 1.01494e-19)
(0.20229 0.137437 -8.0248e-20)
(0.0268856 0.223865 8.36051e-21)
(0.0257146 0.221057 1.12901e-20)
(0.0490654 0.24144 -1.49595e-20)
(0.0493052 0.245663 8.83118e-21)
(0.0737356 0.258637 3.79221e-21)
(0.0767561 0.265575 6.9345e-21)
(0.0945123 0.272309 6.92527e-20)
(0.0998405 0.284214 -4.77377e-20)
(0.110437 0.27993 2.61784e-22)
(0.11611 0.297671 7.00785e-20)
(0.122902 0.279682 -6.89909e-20)
(0.127148 0.303699 -1.70396e-19)
(0.134028 0.270998 1.19512e-19)
(0.136124 0.300849 1.97028e-19)
(0.145537 0.254287 -1.28492e-21)
(0.145011 0.288947 6.85862e-21)
(0.158816 0.231423 2.40699e-21)
(0.155775 0.267878 -2.64037e-20)
(0.175092 0.204904 -9.8937e-20)
(0.169159 0.238909 2.04404e-19)
(0.194097 0.176072 -1.17748e-20)
(0.184216 0.205657 -7.64993e-20)
(0.201041 0.170819 3.74925e-20)
(0.213094 0.147496 3.89069e-19)
(0.0503498 0.245804 1.2307e-20)
(0.0461621 0.234649 -2.79295e-20)
(0.0791947 0.268172 3.05457e-20)
(0.0778465 0.265123 3.97427e-20)
(0.105584 0.289964 -4.65664e-20)
(0.107756 0.286661 4.05132e-20)
(0.124404 0.308341 -4.83139e-20)
(0.129124 0.307054 3.72254e-20)
(0.135765 0.320543 -1.01796e-19)
(0.140103 0.322288 -4.11561e-20)
(0.14271 0.324269 9.73354e-20)
(0.144071 0.330615 -1.86155e-19)
(0.148927 0.318176 8.87926e-20)
(0.146451 0.330938 1.95958e-19)
(0.156905 0.301619 -1.47466e-20)
(0.150456 0.322961 -2.80997e-19)
(0.167709 0.275011 1.77567e-19)
(0.158317 0.305197 1.00134e-19)
(0.181015 0.23997 2.30774e-19)
(0.169448 0.276311 -1.83121e-19)
(0.196181 0.201244 -2.08127e-20)
(0.182634 0.236977 1.42562e-19)
(0.194219 0.193645 -7.6695e-20)
(0.208894 0.162213 -1.75964e-19)
(0.0743636 0.261468 1.86971e-21)
(0.0654116 0.244397 -1.18374e-20)
(0.107105 0.282361 5.05968e-20)
(0.102557 0.274511 2.00167e-20)
(0.13223 0.302297 1.25114e-19)
(0.132027 0.290268 -1.25562e-20)
(0.145643 0.319374 4.64191e-20)
(0.148632 0.305612 8.68281e-20)
(0.14938 0.331483 -1.25782e-19)
(0.15139 0.316489 -5.06032e-21)
(0.14905 0.337116 -8.62766e-20)
(0.146539 0.322579 -4.83499e-20)
(0.1498 0.335197 -1.69583e-19)
(0.141946 0.324236 -1.27435e-21)
(0.154452 0.325074 -1.63152e-19)
(0.141965 0.320968 -1.66964e-19)
(0.163168 0.304917 -2.57409e-19)
(0.147521 0.311023 1.63879e-20)
(0.174456 0.273209 -2.59923e-19)
(0.157344 0.291737 -2.00701e-19)
(0.185422 0.230507 8.35081e-20)
(0.168874 0.260548 -7.38507e-20)
(0.178819 0.218454 8.2691e-20)
(0.193506 0.183596 6.78804e-20)
(0.0925 0.268951 5.41355e-21)
(0.0759589 0.250119 1.63104e-20)
(0.125797 0.280682 -4.44386e-20)
(0.11643 0.27453 -5.71644e-21)
(0.146335 0.291296 -5.43182e-20)
(0.142802 0.277627 -1.13183e-20)
(0.151804 0.300451 3.73829e-20)
(0.152881 0.282962 2.75461e-20)
(0.146599 0.307105 7.53033e-20)
(0.146814 0.286045 3.24504e-21)
(0.138858 0.310672 3.64713e-20)
(0.134249 0.288155 -6.78996e-20)
(0.13466 0.310737 2.65192e-21)
(0.124832 0.289984 7.59382e-20)
(0.136428 0.306605 1.01909e-20)
(0.122147 0.289231 5.87367e-20)
(0.143917 0.296699 6.57164e-20)
(0.125945 0.284052 1.07015e-19)
(0.154923 0.278538 -1.45673e-20)
(0.134624 0.273321 -6.2776e-20)
(0.165645 0.249257 -6.82621e-20)
(0.145472 0.255266 -6.13196e-20)
(0.155334 0.227706 5.57664e-21)
(0.172225 0.2086 -5.72452e-20)
(0.0990235 0.270643 1.94549e-21)
(0.0737742 0.254735 9.06586e-21)
(0.130872 0.268426 2.73189e-20)
(0.116433 0.267193 -1.46501e-20)
(0.146728 0.264868 7.79579e-20)
(0.138379 0.256407 6.32278e-20)
(0.145394 0.264172 -7.02766e-21)
(0.144037 0.249293 -2.6782e-20)
(0.133227 0.266712 -1.41099e-19)
(0.133255 0.244795 1.90118e-20)
(0.120236 0.270097 -2.3433e-20)
(0.116539 0.244504 -4.27197e-20)
(0.11229 0.271286 1.33305e-19)
(0.10344 0.247265 1.31445e-19)
(0.111026 0.268662 1.59919e-19)
(0.0976493 0.248654 -4.58014e-20)
(0.11606 0.262087 -2.30662e-20)
(0.0993434 0.246044 1.01533e-19)
(0.125391 0.251251 -1.10426e-19)
(0.106348 0.238926 -1.21844e-19)
(0.136134 0.234853 2.10567e-20)
(0.115811 0.227279 9.68717e-21)
(0.125262 0.210456 8.52001e-21)
(0.144926 0.210892 7.40905e-21)
(0.0939336 0.268297 -7.14942e-21)
(0.0573945 0.270034 -7.21219e-21)
(0.124333 0.250533 1.90321e-20)
(0.103745 0.262417 0)
(0.135197 0.234408 -3.47694e-20)
(0.123352 0.23718 -1.37616e-21)
(0.131087 0.2242 8.8704e-22)
(0.126875 0.215591 -1.92561e-20)
(0.116593 0.222111 1.2033e-19)
(0.115213 0.202996 1.94937e-21)
(0.100581 0.224959 1.22945e-19)
(0.0970017 0.199387 -3.30142e-20)
(0.0893583 0.227998 -5.86547e-20)
(0.0810704 0.201412 1.08098e-19)
(0.0855518 0.228314 -1.08847e-19)
(0.0727139 0.20451 -1.09803e-19)
(0.0884097 0.224841 8.03447e-21)
(0.0726092 0.205266 0)
(0.0952313 0.217202 8.03447e-21)
(0.0777752 0.202262 5.48178e-20)
(0.103526 0.205149 0)
(0.0850796 0.195178 4.29738e-20)
(0.0928176 0.183675 -1.22102e-20)
(0.111733 0.188626 2.14154e-20)
(0.0638049 0.283009 0)
(0.0381273 0.215501 -1.18313e-21)
(0.104211 0.244136 -1.78917e-20)
(0.0719639 0.220364 -4.47314e-21)
(0.116724 0.211011 1.74363e-20)
(0.0936352 0.204268 -1.14156e-21)
(0.112405 0.189015 -1.39687e-20)
(0.100464 0.17952 -1.06112e-20)
(0.0973027 0.17913 -1.49408e-19)
(0.0912136 0.161058 -4.97078e-20)
(0.0790499 0.17778 -4.45817e-20)
(0.0731584 0.152838 -5.79822e-20)
(0.0651609 0.180352 5.07372e-20)
(0.056208 0.152681 8.94424e-20)
(0.0595748 0.183029 0)
(0.0470347 0.156734 -5.90707e-21)
(0.0612315 0.18368 5.13859e-20)
(0.0462538 0.160703 -8.39946e-20)
(0.066775 0.181295 9.47403e-20)
(0.0503218 0.16223 1.07956e-19)
(0.0735239 0.17501 2.96799e-20)
(0.0560762 0.160589 1.86515e-21)
(0.0802552 0.163943 -2.26678e-20)
(0.0622282 0.155038 -1.24211e-20)
(0.110322 0.086543 -1.33576e-19)
(0.109309 0.101909 2.1122e-19)
(0.111792 0.0815824 -4.56165e-19)
(0.115846 0.0987019 -5.69881e-19)
(0.113277 0.0744554 1.41152e-19)
(0.122595 0.0937092 4.86919e-21)
(0.113355 0.0648804 1.28396e-20)
(0.126632 0.0886303 3.40043e-19)
(0.111356 0.0541281 -6.15125e-20)
(0.12791 0.0814569 -3.5553e-19)
(0.108006 0.0432282 -1.17149e-19)
(0.127444 0.0716993 1.53045e-19)
(0.105206 0.0322473 -1.19719e-19)
(0.126211 0.059005 1.92833e-20)
(0.105141 0.0211218 3.15049e-21)
(0.124898 0.0431468 2.68541e-19)
(0.108967 0.00988401 -2.87647e-20)
(0.124235 0.0258735 -1.10132e-19)
(0.116753 -0.00146235 -1.47015e-20)
(0.125565 0.00909591 2.67123e-20)
(0.126639 -0.0102942 -5.40405e-21)
(0.131089 -0.00437242 -2.99658e-20)
(0.135246 -0.00883425 2.97277e-20)
(0.118156 0.111525 -2.176e-19)
(0.1333 0.111918 -3.37977e-20)
(0.12937 0.109301 -1.01968e-19)
(0.147533 0.110888 -1.03514e-19)
(0.13919 0.10609 1.98998e-19)
(0.160601 0.110023 -1.52956e-19)
(0.144256 0.10238 -4.07661e-20)
(0.168624 0.111151 2.76778e-19)
(0.145824 0.0959094 -1.48765e-19)
(0.173671 0.109659 -2.30583e-20)
(0.145108 0.0847644 2.89717e-19)
(0.176535 0.103796 -1.23215e-19)
(0.143535 0.0684739 4.15199e-19)
(0.17722 0.091051 1.39668e-19)
(0.142293 0.0479594 1.6276e-19)
(0.175194 0.0707676 1.00194e-19)
(0.142067 0.0254843 -5.45028e-20)
(0.169706 0.0454933 2.62111e-20)
(0.144651 0.00426414 1.11028e-20)
(0.162001 0.0167998 -6.20948e-20)
(0.148073 -0.0079997 6.58147e-21)
(0.156863 -0.00511407 1.52936e-20)
(0.152117 -0.00997523 1.37478e-20)
(0.160346 0.116008 9.369e-20)
(0.168356 0.120259 1.45968e-19)
(0.178063 0.116021 -1.4706e-19)
(0.188789 0.118982 -5.01464e-20)
(0.190276 0.117826 -8.06956e-20)
(0.204299 0.121675 -1.57921e-19)
(0.198173 0.11994 3.00593e-19)
(0.215173 0.126564 7.46751e-20)
(0.2039 0.118781 5.01336e-21)
(0.224107 0.12908 7.21446e-20)
(0.206492 0.110734 -2.92626e-19)
(0.229991 0.129297 -2.76177e-19)
(0.205405 0.0942734 -1.8724e-19)
(0.232758 0.122124 9.92917e-20)
(0.199904 0.069266 -4.00284e-20)
(0.230216 0.105874 -1.1489e-19)
(0.191176 0.0390644 1.86743e-20)
(0.22036 0.0794432 1.82146e-21)
(0.180965 0.01113 -5.65447e-20)
(0.203026 0.044548 -6.34252e-20)
(0.171039 -0.00369726 2.5381e-20)
(0.18283 0.0138861 3.59813e-20)
(0.167304 -0.000449476 1.20667e-20)
(0.199582 0.123138 -5.68318e-21)
(0.200333 0.125905 7.72545e-20)
(0.218345 0.123375 -6.32983e-20)
(0.220894 0.120178 -6.41795e-20)
(0.23177 0.128085 0)
(0.234828 0.121267 0)
(0.242638 0.133878 -1.60784e-19)
(0.245452 0.126201 0)
(0.251183 0.137254 -2.126e-19)
(0.254909 0.131898 -1.17202e-19)
(0.257087 0.136514 1.12567e-19)
(0.262831 0.136811 -4.35887e-21)
(0.257833 0.128784 1.70168e-19)
(0.268168 0.138307 2.02688e-19)
(0.251056 0.111134 -7.54789e-20)
(0.268715 0.133555 1.27403e-20)
(0.234977 0.0822739 -8.18047e-20)
(0.260913 0.118928 1.40854e-20)
(0.210433 0.0458462 3.30764e-20)
(0.242129 0.0912548 -1.77728e-20)
(0.187851 0.0152985 2.24328e-20)
(0.213837 0.0507697 3.49321e-20)
(0.18466 0.010589 -3.39801e-20)
(0.223093 0.12435 1.50587e-20)
(0.216807 0.130788 1.93023e-19)
(0.237676 0.118764 0)
(0.232038 0.117084 1.39117e-20)
(0.248028 0.119715 0)
(0.240307 0.111633 0)
(0.257264 0.124527 4.73547e-20)
(0.246143 0.111605 0)
(0.265901 0.131216 9.39182e-20)
(0.251724 0.115263 -1.86442e-20)
(0.273468 0.137744 8.26257e-20)
(0.25776 0.121729 1.14502e-19)
(0.278717 0.141579 4.09904e-20)
(0.264803 0.129053 8.03885e-22)
(0.279049 0.139568 1.01685e-19)
(0.271138 0.134919 -2.11452e-20)
(0.270012 0.126654 7.87207e-20)
(0.273253 0.136809 6.52712e-20)
(0.247103 0.0964713 -1.66087e-20)
(0.266381 0.129383 -1.44665e-21)
(0.213791 0.0472597 -2.36909e-20)
(0.247689 0.100434 1.05353e-20)
(0.21603 0.0349059 -2.47992e-20)
(0.227066 0.124181 1.94658e-19)
(0.216065 0.138817 1.58861e-19)
(0.234064 0.109865 1.40928e-20)
(0.224008 0.115759 -2.6325e-20)
(0.237049 0.103563 0)
(0.225204 0.102372 1.13034e-20)
(0.2392 0.102696 -6.7474e-20)
(0.224433 0.0960973 4.95516e-20)
(0.242357 0.106069 -9.58371e-23)
(0.224138 0.0947471 -1.59986e-19)
(0.24797 0.113137 3.12541e-20)
(0.226004 0.0972636 6.903e-20)
(0.256056 0.122591 -6.34393e-20)
(0.231117 0.103216 -6.1855e-20)
(0.264921 0.132691 -6.02939e-20)
(0.239994 0.112168 2.43335e-20)
(0.271113 0.139838 -1.73284e-20)
(0.250498 0.122978 -3.42204e-20)
(0.267764 0.132539 2.51404e-20)
(0.258488 0.133498 1.12175e-21)
(0.244807 0.0879158 9.75064e-21)
(0.26102 0.132226 8.7549e-21)
(0.25274 0.0756237 2.16522e-21)
(0.215363 0.128768 -6.19822e-20)
(0.202878 0.152465 -2.68561e-20)
(0.215202 0.105467 -3.98597e-20)
(0.204792 0.120192 -7.48327e-20)
(0.212021 0.0921523 6.15895e-20)
(0.201019 0.0983114 8.6023e-20)
(0.208849 0.0860032 -3.97681e-20)
(0.196 0.085652 -7.18111e-21)
(0.207196 0.0847484 -9.28139e-20)
(0.192328 0.080059 -2.40467e-20)
(0.20823 0.0869797 -2.47469e-20)
(0.191529 0.0793534 0)
(0.214173 0.0925525 2.70604e-20)
(0.194671 0.0809138 -3.22664e-20)
(0.22468 0.102163 5.17486e-20)
(0.202751 0.0866311 3.90518e-20)
(0.23917 0.117364 -1.57513e-20)
(0.215078 0.0957634 0)
(0.254673 0.133936 -1.57513e-20)
(0.229824 0.109797 4.72565e-21)
(0.25731 0.119726 1.16367e-21)
(0.246017 0.129162 -5.3434e-21)
(0.271646 0.109319 4.32302e-21)
(0.19494 0.141063 -4.03537e-20)
(0.184118 0.172676 -6.96752e-20)
(0.190596 0.109183 4.15997e-20)
(0.182634 0.132054 2.15077e-20)
(0.184395 0.088522 1.4917e-20)
(0.176235 0.101244 6.99329e-20)
(0.179218 0.0770104 4.72244e-21)
(0.169222 0.0811466 -5.91508e-20)
(0.176809 0.0721165 6.56084e-20)
(0.164692 0.0702184 6.62927e-20)
(0.178185 0.0716249 -7.32562e-21)
(0.164198 0.0657979 0)
(0.183128 0.0738485 -2.05159e-20)
(0.168039 0.0651907 4.99813e-21)
(0.192796 0.0789402 -1.3422e-20)
(0.17612 0.0674899 -1.84486e-20)
(0.207041 0.0880266 2.13701e-20)
(0.188343 0.0733616 -8.04831e-22)
(0.226147 0.106706 1.27784e-20)
(0.20499 0.0838743 2.07118e-20)
(0.247427 0.118881 -2.24387e-21)
(0.224064 0.104575 -6.11525e-21)
(0.269441 0.113701 1.11131e-21)
(0.172494 0.162796 -7.53584e-21)
(0.16111 0.190842 -5.75901e-20)
(0.167252 0.121765 4.699e-20)
(0.160837 0.150347 4.74512e-20)
(0.159963 0.0916203 0)
(0.155294 0.113046 -2.29958e-21)
(0.15403 0.0727818 0)
(0.147778 0.0841768 0)
(0.151792 0.0628547 0)
(0.142443 0.0653337 7.00129e-23)
(0.154156 0.0586949 1.14584e-20)
(0.141792 0.0552183 0)
(0.16093 0.0580567 6.52028e-21)
(0.146464 0.051031 1.69848e-20)
(0.171969 0.0605314 -5.75144e-21)
(0.155995 0.0504828 -3.95598e-21)
(0.18781 0.067056 -1.70385e-21)
(0.169868 0.0530073 5.49512e-22)
(0.208344 0.0799287 9.27751e-22)
(0.189 0.0603331 -8.99279e-22)
(0.23632 0.0962153 -2.41802e-21)
(0.211304 0.0757808 -1.06732e-21)
(0.258962 0.0918618 -2.43907e-21)
(0.148769 0.178616 -2.59078e-21)
(0.132586 0.187474 1.33241e-20)
(0.146963 0.141283 -2.32238e-21)
(0.136041 0.158653 3.02613e-21)
(0.141278 0.105095 -2.32238e-21)
(0.135083 0.126399 -1.56605e-21)
(0.135162 0.0760898 7.0707e-23)
(0.13092 0.0948752 -1.37373e-20)
(0.131997 0.0570558 7.0707e-23)
(0.126353 0.068383 2.57569e-21)
(0.133943 0.0469645 4.57251e-21)
(0.124564 0.0496848 0)
(0.141462 0.0428291 4.61131e-21)
(0.127944 0.0388436 1.00881e-20)
(0.15408 0.0422657 7.89351e-22)
(0.137286 0.0339433 6.34736e-21)
(0.171693 0.044921 7.50558e-22)
(0.152218 0.0329888 1.44908e-20)
(0.196638 0.0536372 1.46937e-21)
(0.173732 0.0348548 0)
(0.230209 0.0657867 2.30826e-21)
(0.20003 0.0442642 1.48299e-21)
(0.247952 0.0521816 8.47682e-22)
(0.118545 0.167892 2.38334e-20)
(0.100187 0.16764 1.66615e-20)
(0.122629 0.1434 5.13689e-21)
(0.106378 0.147694 9.39643e-21)
(0.123203 0.115826 -1.17834e-20)
(0.110575 0.124887 -1.06278e-20)
(0.120974 0.0871105 -8.80221e-21)
(0.112462 0.100179 -3.91215e-21)
(0.118243 0.0609769 3.13428e-21)
(0.112471 0.0748757 2.86423e-20)
(0.11821 0.0413145 5.93779e-21)
(0.11204 0.0514264 1.11386e-20)
(0.12349 0.0294362 1.34508e-20)
(0.113648 0.0327698 -6.52686e-21)
(0.135325 0.0237881 2.10519e-20)
(0.119981 0.0202975 -9.67e-21)
(0.154256 0.021914 1.38618e-20)
(0.132719 0.0131329 1.3962e-21)
(0.180972 0.0237144 0)
(0.153783 0.00926496 9.7432e-21)
(0.221731 0.0259085 1.02715e-24)
(0.181762 0.00849547 -1.27874e-20)
(0.237529 -0.0048868 -9.86174e-26)
(0.0867099 0.148177 -4.05772e-21)
(0.0687269 0.144725 -9.73553e-21)
(0.0928891 0.129236 -6.47014e-21)
(0.0756247 0.129837 -3.99702e-21)
(0.0985222 0.108862 -3.15932e-21)
(0.0825713 0.111907 -4.72993e-21)
(0.102966 0.0876088 3.53881e-20)
(0.0891587 0.092654 7.55053e-22)
(0.105607 0.0652897 3.57553e-20)
(0.0949149 0.0728831 2.78839e-20)
(0.107019 0.0430289 -9.25034e-22)
(0.0992681 0.0525303 -1.66236e-20)
(0.109683 0.0237277 -2.94814e-20)
(0.102394 0.0321774 3.79796e-21)
(0.116887 0.00960202 -2.95845e-20)
(0.106191 0.0138046 -1.07398e-20)
(0.13163 -0.00015036 -2.68186e-21)
(0.113469 -0.00119944 -2.68078e-20)
(0.157932 -0.00873869 -3.07121e-21)
(0.128001 -0.0146065 -9.33926e-21)
(0.206861 -0.0311494 -1.29019e-20)
(0.148074 -0.0319276 -8.15859e-23)
(0.187205 -0.0837938 -6.07211e-22)
(0.133984 -0.0237459 -6.06484e-20)
(0.140689 -0.00757402 2.54975e-20)
(0.132032 -0.0310399 3.49487e-22)
(0.141007 -0.0133802 -1.5581e-20)
(0.126357 -0.0347244 1.95111e-19)
(0.137155 -0.0153289 1.59562e-20)
(0.118699 -0.0397392 3.88176e-20)
(0.131133 -0.0205242 3.09358e-19)
(0.111531 -0.0464357 -7.82801e-20)
(0.124524 -0.0299632 -2.13688e-19)
(0.10602 -0.0548802 2.96255e-19)
(0.118 -0.04153 0)
(0.101516 -0.0643782 7.12084e-20)
(0.112872 -0.0522 1.76299e-19)
(0.0981727 -0.0743817 -2.24511e-19)
(0.108903 -0.0633878 -4.66639e-20)
(0.095871 -0.0845041 -2.13177e-19)
(0.106014 -0.074821 0)
(0.0941998 -0.0940892 -2.79828e-19)
(0.104219 -0.0858547 -3.1511e-19)
(0.0925265 -0.10217 -6.66507e-20)
(0.103402 -0.095662 4.19772e-19)
(0.103048 -0.103384 -1.12549e-19)
(0.0901646 -0.107662 1.29689e-19)
(0.150812 -0.00308651 7.37156e-20)
(0.154459 -0.00999597 -7.15613e-21)
(0.145827 -0.00228707 1.81123e-21)
(0.154763 -0.00585996 4.1353e-20)
(0.140139 -0.00616263 1.28974e-19)
(0.150491 -0.00861262 4.77845e-20)
(0.134845 -0.0156529 6.40403e-20)
(0.145843 -0.0181383 3.05352e-20)
(0.129517 -0.0283811 -1.31728e-19)
(0.14151 -0.0318472 -1.88168e-19)
(0.123405 -0.0416988 -1.27842e-19)
(0.137107 -0.0460742 -1.16352e-19)
(0.118414 -0.0553373 6.19906e-20)
(0.131655 -0.0617931 -2.42527e-19)
(0.114426 -0.0691884 1.90458e-19)
(0.125594 -0.0770115 1.93642e-19)
(0.11131 -0.0825332 -1.1397e-19)
(0.119729 -0.0909417 2.17949e-19)
(0.109588 -0.0943367 3.7066e-19)
(0.1148 -0.103536 -2.28389e-19)
(0.109798 -0.103514 3.67094e-19)
(0.11186 -0.114236 4.95607e-19)
(0.111529 -0.123244 -2.93421e-19)
(0.111371 -0.110409 -3.95981e-21)
(0.161984 -0.0078393 -4.3158e-20)
(0.16931 -0.00619154 -9.50036e-21)
(0.158089 -0.00619555 8.76761e-20)
(0.171924 -0.00197443 -2.73245e-20)
(0.15553 -0.0135353 -5.65797e-20)
(0.171655 -0.0102548 1.67654e-19)
(0.15337 -0.028061 -2.36063e-19)
(0.172084 -0.0260201 -1.25449e-19)
(0.150319 -0.0454366 -1.78365e-19)
(0.171697 -0.0442456 -6.40312e-20)
(0.146722 -0.0632074 -2.39267e-19)
(0.169049 -0.0627476 -2.16485e-19)
(0.141382 -0.0796828 -1.20936e-19)
(0.164011 -0.0797701 -2.15662e-19)
(0.134795 -0.0944806 2.21656e-19)
(0.156331 -0.0955838 1.02123e-19)
(0.128063 -0.107707 1.04528e-19)
(0.146971 -0.110215 1.35226e-19)
(0.122463 -0.119387 -1.19722e-19)
(0.137363 -0.123777 -2.06548e-19)
(0.118994 -0.130123 -1.95967e-19)
(0.129467 -0.136399 -2.50541e-19)
(0.124035 -0.150497 -2.49679e-19)
(0.117291 -0.143381 -1.90671e-19)
(0.179828 -0.00200201 7.37209e-21)
(0.187181 -0.00538983 -5.26495e-21)
(0.181845 -0.00655566 5.15301e-20)
(0.194877 -0.00749131 4.4311e-20)
(0.185951 -0.0230781 1.04061e-19)
(0.201017 -0.024012 9.25078e-20)
(0.189282 -0.0432932 5.24573e-20)
(0.207654 -0.0448466 9.93386e-20)
(0.189831 -0.062855 -1.02672e-19)
(0.211382 -0.0648197 -8.97094e-20)
(0.186376 -0.0807919 -1.93982e-19)
(0.21053 -0.0827116 -1.04893e-19)
(0.179239 -0.0974279 1.012e-20)
(0.204799 -0.0988294 -1.11847e-20)
(0.169142 -0.112877 1.25164e-20)
(0.194805 -0.113808 1.88161e-19)
(0.157513 -0.127262 -1.83657e-19)
(0.181548 -0.128273 -1.2284e-20)
(0.146099 -0.141175 -3.43093e-19)
(0.166534 -0.142849 -2.3562e-19)
(0.136164 -0.157102 -3.04181e-19)
(0.151482 -0.158721 -1.13754e-19)
(0.137349 -0.178315 -4.11946e-20)
(0.128066 -0.177962 2.22902e-19)
(0.200325 -0.009984 3.2299e-20)
(0.204771 -0.01099 -4.71401e-20)
(0.210334 -0.0238899 8.58902e-20)
(0.220423 -0.0240227 4.3074e-20)
(0.221141 -0.0455888 8.88717e-20)
(0.234001 -0.047001 1.11036e-19)
(0.229088 -0.0666382 -4.13073e-20)
(0.246818 -0.069633 -2.02556e-20)
(0.232138 -0.0850482 -9.08293e-20)
(0.255041 -0.0886073 -8.84377e-20)
(0.229376 -0.101112 8.1424e-20)
(0.256843 -0.104211 -7.47295e-20)
(0.221018 -0.115696 1.69348e-19)
(0.251441 -0.117931 8.65453e-20)
(0.207928 -0.129624 1.65289e-19)
(0.239297 -0.130828 8.49784e-20)
(0.191594 -0.143976 -6.24725e-20)
(0.221437 -0.144156 8.24341e-20)
(0.173452 -0.160404 -2.57219e-23)
(0.199757 -0.159008 -1.45709e-19)
(0.154599 -0.180545 1.59776e-19)
(0.176202 -0.17639 2.46919e-19)
(0.151762 -0.196999 2.36622e-20)
(0.137021 -0.203617 -1.00547e-19)
(0.223857 -0.0265474 -3.67905e-20)
(0.221089 -0.0255054 -2.79558e-20)
(0.241373 -0.0485005 6.83551e-20)
(0.245648 -0.0488524 1.32344e-20)
(0.258463 -0.0729958 3.66239e-21)
(0.265549 -0.0760593 2.06364e-20)
(0.271956 -0.0937154 -6.66949e-20)
(0.284109 -0.0989918 -1.15496e-19)
(0.27932 -0.109734 -6.9399e-20)
(0.297401 -0.115282 -5.07555e-20)
(0.278774 -0.122418 -6.9399e-20)
(0.303174 -0.126511 -1.91399e-20)
(0.269813 -0.133834 0)
(0.300009 -0.135791 0)
(0.25298 -0.145688 0)
(0.28776 -0.145074 0)
(0.230142 -0.159361 0)
(0.26641 -0.156185 0)
(0.203663 -0.176014 1.04092e-19)
(0.237352 -0.169822 0)
(0.175014 -0.195288 1.00888e-19)
(0.204194 -0.185255 2.54546e-19)
(0.169691 -0.202174 -7.91793e-20)
(0.146716 -0.214189 3.54898e-21)
(0.245813 -0.0499979 2.37758e-20)
(0.234684 -0.0459533 1.77833e-21)
(0.268202 -0.0785928 -3.57255e-20)
(0.265179 -0.0773945 -6.26484e-21)
(0.289999 -0.104782 -9.85961e-20)
(0.286815 -0.107059 -4.36992e-20)
(0.308312 -0.123535 -9.99527e-20)
(0.307263 -0.128267 -4.26904e-20)
(0.320348 -0.13501 -2.24225e-22)
(0.322481 -0.139279 -5.19396e-20)
(0.3238 -0.142222 5.17033e-20)
(0.330692 -0.143478 -2.87768e-20)
(0.317336 -0.148783 0)
(0.330781 -0.146205 0)
(0.300347 -0.157111 0)
(0.322417 -0.150606 7.3949e-20)
(0.273389 -0.168229 0)
(0.304121 -0.158808 -1.38703e-19)
(0.238216 -0.181742 1.51014e-19)
(0.274758 -0.170134 -5.71595e-20)
(0.199871 -0.197201 5.75847e-20)
(0.234895 -0.183793 3.05429e-20)
(0.192098 -0.194956 -5.28832e-20)
(0.161084 -0.20966 5.01918e-20)
(0.261527 -0.0740654 -2.74755e-20)
(0.244448 -0.0652543 -6.60078e-21)
(0.282544 -0.106581 -1.49581e-20)
(0.274639 -0.102211 3.15886e-20)
(0.302618 -0.131516 1.13271e-20)
(0.29058 -0.131462 2.41198e-20)
(0.3198 -0.144885 5.3424e-21)
(0.306068 -0.147929 4.07289e-20)
(0.331934 -0.148779 -8.19675e-20)
(0.317043 -0.150748 0)
(0.33747 -0.148763 -8.19675e-20)
(0.323164 -0.146161 7.06911e-20)
(0.335295 -0.149891 7.47811e-20)
(0.324746 -0.141919 -1.49253e-19)
(0.324717 -0.154899 -6.58071e-20)
(0.321249 -0.142297 1.45554e-19)
(0.30396 -0.163866 -1.98067e-19)
(0.310882 -0.14816 -7.37607e-20)
(0.27174 -0.175287 -1.7849e-19)
(0.290972 -0.158186 -4.05967e-20)
(0.228534 -0.186029 -7.25299e-20)
(0.259003 -0.16977 -8.69102e-20)
(0.216602 -0.179462 3.05085e-20)
(0.181965 -0.193959 2.14729e-20)
(0.269044 -0.0922979 5.41675e-20)
(0.250186 -0.0758832 -3.85614e-22)
(0.280938 -0.12541 7.53662e-20)
(0.274688 -0.11622 4.76086e-20)
(0.291741 -0.145779 5.76004e-20)
(0.278008 -0.142399 2.00831e-20)
(0.301054 -0.151228 3.77124e-20)
(0.283504 -0.152342 7.01148e-20)
(0.307804 -0.146203 1.58015e-19)
(0.286703 -0.146346 -9.86319e-20)
(0.311391 -0.138774 3.95837e-21)
(0.288866 -0.134048 1.59566e-19)
(0.311381 -0.134926 -7.62407e-20)
(0.290653 -0.124954 -2.19569e-19)
(0.307037 -0.13702 1.34964e-19)
(0.289762 -0.122576 7.78825e-20)
(0.29673 -0.144762 7.57684e-20)
(0.284354 -0.126632 1.6041e-19)
(0.277951 -0.155874 4.69398e-20)
(0.273261 -0.135467 -1.97053e-20)
(0.247952 -0.166379 1.9409e-20)
(0.254667 -0.146306 1.13994e-19)
(0.226561 -0.155926 -8.69922e-20)
(0.206913 -0.17255 -3.32626e-20)
(0.270745 -0.0989095 -4.37174e-21)
(0.254798 -0.0737832 -7.97822e-21)
(0.268701 -0.130622 -8.32304e-21)
(0.267375 -0.116362 -1.75626e-20)
(0.265346 -0.146323 3.23497e-20)
(0.256807 -0.138134 0)
(0.264816 -0.144958 -6.13509e-20)
(0.249855 -0.143643 3.26495e-20)
(0.267426 -0.132946 -9.96096e-20)
(0.24547 -0.132898 -6.81436e-20)
(0.270753 -0.120211 -6.79298e-20)
(0.245211 -0.116373 1.52057e-19)
(0.271817 -0.112547 -5.29056e-20)
(0.247892 -0.103548 -1.89276e-19)
(0.269046 -0.111553 1.03014e-19)
(0.249121 -0.0980413 1.09872e-19)
(0.26229 -0.116796 6.65391e-20)
(0.246307 -0.0999611 6.31784e-20)
(0.251191 -0.126224 4.90634e-20)
(0.238961 -0.107085 -5.69065e-20)
(0.234408 -0.136864 5.79686e-22)
(0.22705 -0.116531 6.82343e-20)
(0.20993 -0.125807 -5.36681e-20)
(0.210028 -0.145347 -8.56484e-20)
(0.26841 -0.0939616 -1.64406e-20)
(0.270129 -0.0574959 -7.25669e-21)
(0.25082 -0.124246 -9.24815e-21)
(0.262646 -0.103811 -1.19319e-20)
(0.234876 -0.134953 0)
(0.237578 -0.123236 1.33762e-20)
(0.224846 -0.130775 3.16574e-20)
(0.216136 -0.126614 0)
(0.222837 -0.116355 1.85032e-19)
(0.203646 -0.114934 3.19354e-20)
(0.225646 -0.100537 2.44424e-20)
(0.200066 -0.096853 9.902e-20)
(0.228545 -0.0895643 -1.53409e-20)
(0.202037 -0.0811541 -1.18034e-19)
(0.228675 -0.0859892 6.94247e-20)
(0.204995 -0.0730609 2.52544e-20)
(0.224986 -0.0889871 -5.90582e-20)
(0.20555 -0.0731319 1.40514e-20)
(0.217114 -0.0958359 -3.75583e-20)
(0.202327 -0.0783547 3.89576e-22)
(0.204835 -0.104058 1.14961e-21)
(0.195022 -0.0856214 -2.17152e-20)
(0.183319 -0.0932466 8.25295e-21)
(0.188128 -0.11211 1.92427e-20)
(0.283192 -0.0639179 -3.11256e-21)
(0.215602 -0.0383698 -1.18641e-21)
(0.244445 -0.104231 1.03833e-20)
(0.22056 -0.0721158 7.54186e-21)
(0.21145 -0.116584 1.34947e-20)
(0.204626 -0.093594 7.21087e-21)
(0.189605 -0.112177 0)
(0.179991 -0.10029 0)
(0.179799 -0.0970979 -5.39086e-20)
(0.161628 -0.09098 0)
(0.178439 -0.079003 -4.89065e-20)
(0.153462 -0.0730279 -5.43582e-20)
(0.180909 -0.0653524 -7.53943e-20)
(0.153294 -0.0562911 5.04378e-21)
(0.183433 -0.0599767 -3.28734e-20)
(0.157242 -0.0473602 -8.38206e-20)
(0.1839 -0.0617371 7.75924e-20)
(0.161038 -0.046713 5.51268e-20)
(0.181316 -0.0672768 2.29988e-20)
(0.162377 -0.0508003 2.31906e-20)
(0.174827 -0.0739415 -2.02189e-20)
(0.160553 -0.0565003 -2.6228e-20)
(0.163579 -0.0805355 -1.60608e-20)
(0.154826 -0.0625478 -7.21599e-21)
(0.0866771 -0.110281 2.64515e-19)
(0.102138 -0.109493 2.29731e-19)
(0.0817273 -0.111832 -4.50899e-19)
(0.0988837 -0.116233 -5.38342e-20)
(0.0745511 -0.113453 -2.62067e-19)
(0.0939285 -0.123136 -3.93351e-19)
(0.0649157 -0.113655 3.21841e-19)
(0.0888466 -0.127229 3.27825e-19)
(0.0541712 -0.11171 6.07178e-20)
(0.0816685 -0.12852 -9.18324e-20)
(0.0433382 -0.108347 1.18649e-19)
(0.0719389 -0.128055 1.54767e-19)
(0.0324172 -0.105499 1.17672e-19)
(0.0592691 -0.12679 5.48996e-21)
(0.0213125 -0.105381 -8.5766e-20)
(0.043396 -0.125422 1.14311e-19)
(0.0100565 -0.109153 -1.46473e-19)
(0.0260824 -0.124648 -1.49197e-19)
(-0.00134275 -0.116875 1.41115e-20)
(0.00927893 -0.125845 2.5964e-20)
(-0.0102392 -0.126691 2.13535e-20)
(-0.00422157 -0.131227 -7.36088e-20)
(-0.00873769 -0.135277 3.73674e-20)
(0.111798 -0.118762 -9.13177e-20)
(0.112221 -0.134034 1.11275e-19)
(0.109546 -0.130267 8.55651e-21)
(0.111182 -0.148582 -1.27042e-19)
(0.106446 -0.140126 2.06846e-19)
(0.110459 -0.161724 5.75331e-20)
(0.102819 -0.145173 -9.35724e-20)
(0.11164 -0.169742 1.51143e-19)
(0.0963241 -0.146731 1.10793e-21)
(0.110178 -0.174781 -2.05736e-20)
(0.0851417 -0.145998 4.19524e-20)
(0.104315 -0.177642 2.33859e-19)
(0.0688119 -0.144356 1.69604e-21)
(0.0916167 -0.178264 -1.31739e-19)
(0.0482483 -0.142972 5.44239e-20)
(0.071377 -0.176114 1.31521e-19)
(0.0257541 -0.142614 2.64559e-20)
(0.0459835 -0.170425 -7.96845e-20)
(0.00451311 -0.144963 -6.53852e-20)