/*--------------------------------*- C++ -*----------------------------------*\
| =========                 |                                                 |
| \\      /  F ield         | OpenFOAM: The Open Source CFD Toolbox           |
|  \\    /   O peration     | Version:  v1806                                 |
|   \\  /    A nd           | Web:      www.OpenFOAM.com                      |
|    \\/     M anipulation  |                                                 |
\*---------------------------------------------------------------------------*/
FoamFile
{
    version     2.0;
    format      ascii;
    class       volScalarField;
    location    "5";
    object      p;
}
// * * * * * * * * * * * * * * * * * * * * * * * * * * * * * * * * * * * * * //

dimensions      [0 2 -2 0 0 0 0];


internalField   nonuniform List<scalar> 
768
(
-0.0438251
-0.0440172
-0.0442136
-0.0443736
-0.0444684
-0.044587
-0.0447626
-0.0449919
-0.0452506
-0.0455014
-0.0457248
-0.0459219
-0.0405454
-0.0407203
-0.0409331
-0.0411572
-0.0414081
-0.0416849
-0.0419823
-0.0423219
-0.0426601
-0.0428992
-0.0429762
-0.0429211
-0.0386215
-0.0387068
-0.0388683
-0.0390977
-0.0393448
-0.0395981
-0.0398214
-0.040006
-0.0401322
-0.0401515
-0.0400145
-0.0397621
-0.0356582
-0.0358348
-0.0360692
-0.0363347
-0.0365951
-0.0367947
-0.0369497
-0.036988
-0.0368957
-0.0366711
-0.0363302
-0.0359421
-0.0327432
-0.032933
-0.033187
-0.0334531
-0.0336971
-0.0338761
-0.0339137
-0.0337687
-0.0334196
-0.0329132
-0.0323583
-0.0318674
-0.0294536
-0.0297052
-0.0299797
-0.0302331
-0.0304313
-0.0305498
-0.0304999
-0.0302333
-0.0297199
-0.0290388
-0.0283663
-0.0278468
-0.0259847
-0.026235
-0.02648
-0.0266907
-0.0268477
-0.0268625
-0.0267176
-0.0263641
-0.0257754
-0.0250403
-0.0243623
-0.0238976
-0.0223085
-0.0224971
-0.0226523
-0.0227627
-0.0228165
-0.0227452
-0.0225326
-0.0221476
-0.0215791
-0.0209107
-0.0203352
-0.0200059
-0.018455
-0.0184946
-0.018488
-0.018456
-0.0183749
-0.0182021
-0.0179574
-0.0176074
-0.0171599
-0.0166813
-0.0163198
-0.0162023
-0.0144754
-0.0142535
-0.014037
-0.0138335
-0.0135413
-0.013281
-0.0130647
-0.0128219
-0.0125829
-0.0124028
-0.0123585
-0.0125239
-0.0103661
-0.00978878
-0.00943026
-0.00911087
-0.00875783
-0.00837186
-0.00804355
-0.00797226
-0.00796852
-0.00812641
-0.00845069
-0.00894728
-0.00692256
-0.00574298
-0.00511047
-0.00488374
-0.00451793
-0.00401455
-0.00360972
-0.00348787
-0.00366831
-0.0040738
-0.00469614
-0.0054954
-0.046098
-0.0462424
-0.0463434
-0.046406
-0.0464541
-0.0465262
-0.0466637
-0.0468888
-0.0471799
-0.0474075
-0.0474402
-0.0473042
-0.0427986
-0.0426426
-0.0424913
-0.0424005
-0.0423952
-0.0424846
-0.0427747
-0.0432755
-0.0438755
-0.0443925
-0.044685
-0.0447451
-0.0394816
-0.0392376
-0.0390672
-0.0389962
-0.0390701
-0.0393424
-0.0397363
-0.0403627
-0.0412236
-0.0421854
-0.0428807
-0.0430034
-0.0355821
-0.0352982
-0.0351233
-0.0350889
-0.0352239
-0.0355376
-0.0360646
-0.0368065
-0.0378207
-0.0391159
-0.0403435
-0.0408487
-0.0315023
-0.0312828
-0.0312126
-0.0312868
-0.031501
-0.0318736
-0.0324106
-0.0331723
-0.0341998
-0.0355745
-0.0372367
-0.0383449
-0.0275262
-0.0273878
-0.0274013
-0.0275423
-0.0277995
-0.0281787
-0.0287289
-0.0294681
-0.0304372
-0.0316898
-0.0334683
-0.0353656
-0.0236713
-0.0236342
-0.0237329
-0.0239348
-0.0242278
-0.0246184
-0.0251335
-0.0258014
-0.0266655
-0.0277376
-0.0293514
-0.0318254
-0.0199297
-0.0200296
-0.0202338
-0.0205036
-0.0208258
-0.0212056
-0.0216697
-0.022223
-0.0229408
-0.0238411
-0.0251995
-0.0277604
-0.0163239
-0.0165921
-0.0169227
-0.0172733
-0.0176282
-0.0179845
-0.0183474
-0.0187822
-0.019288
-0.0199467
-0.0210285
-0.023256
-0.0128816
-0.01334
-0.0138136
-0.0142581
-0.0146551
-0.0150001
-0.0152973
-0.0155628
-0.0157512
-0.015955
-0.0164862
-0.0179904
-0.00957279
-0.0102401
-0.0108739
-0.0114329
-0.0118997
-0.012268
-0.0125207
-0.0126075
-0.0124514
-0.0119816
-0.0114123
-0.0111303
-0.00639191
-0.00728851
-0.00811839
-0.00884334
-0.00944082
-0.0098893
-0.010138
-0.0100891
-0.00965671
-0.00861063
-0.00668626
-0.00336028
-0.0442074
-0.0441959
-0.0442261
-0.0442975
-0.0444039
-0.0445483
-0.0447393
-0.0449791
-0.0452307
-0.0454715
-0.0456844
-0.0458734
-0.0407543
-0.0408785
-0.0410695
-0.0412722
-0.0414876
-0.0417404
-0.0420311
-0.0423743
-0.0426976
-0.0428994
-0.0429372
-0.0428556
-0.0388687
-0.038935
-0.0390647
-0.0392539
-0.0394855
-0.0396966
-0.0398885
-0.040034
-0.0401295
-0.0401074
-0.0399271
-0.0396442
-0.0357659
-0.0359643
-0.0361991
-0.0364349
-0.0366493
-0.0368283
-0.0369438
-0.0369436
-0.036817
-0.0365553
-0.0361842
-0.0357805
-0.0328751
-0.0330555
-0.0332938
-0.0335323
-0.033739
-0.0338609
-0.0338428
-0.033644
-0.0332512
-0.0327186
-0.0321591
-0.0316789
-0.0295418
-0.0297872
-0.0300444
-0.03027
-0.0304292
-0.0304918
-0.0303845
-0.0300576
-0.0294957
-0.0287979
-0.0281407
-0.027651
-0.0260732
-0.0263022
-0.0265233
-0.0267021
-0.0268051
-0.0267775
-0.0265818
-0.026173
-0.0255393
-0.0247937
-0.0241409
-0.0237142
-0.0223812
-0.0225493
-0.0226832
-0.0227748
-0.0227808
-0.0226663
-0.022409
-0.0219783
-0.0213732
-0.0206974
-0.0201471
-0.0198539
-0.0185153
-0.018538
-0.0185132
-0.0184543
-0.0183655
-0.0181544
-0.0178751
-0.0174923
-0.0170183
-0.0165332
-0.0161894
-0.0160975
-0.0145211
-0.0142876
-0.0140608
-0.0138463
-0.0135487
-0.0132834
-0.0130462
-0.0127838
-0.0125285
-0.0123416
-0.0123023
-0.0124758
-0.0103905
-0.00980332
-0.00944669
-0.0091375
-0.00878414
-0.00840219
-0.00807613
-0.00801406
-0.00800527
-0.00815829
-0.00847589
-0.00896087
-0.00691529
-0.00572379
-0.0051168
-0.00491634
-0.00456618
-0.00407043
-0.00367806
-0.0035689
-0.0037611
-0.00417277
-0.00478562
-0.00555875
-0.0460415
-0.0461744
-0.0462634
-0.0463163
-0.0463573
-0.0464264
-0.0465639
-0.0467939
-0.0470991
-0.0473424
-0.0473826
-0.0472474
-0.042712
-0.0425354
-0.042367
-0.0422677
-0.0422617
-0.0423533
-0.0426593
-0.0431863
-0.0438113
-0.0443445
-0.0446451
-0.0447025
-0.0393454
-0.0390937
-0.0389248
-0.038863
-0.0389486
-0.0392278
-0.0396345
-0.040276
-0.0411512
-0.042127
-0.0428345
-0.0429629
-0.0354176
-0.035141
-0.0349806
-0.0349643
-0.0351175
-0.0354499
-0.0359851
-0.0367366
-0.0377587
-0.0390619
-0.0403033
-0.0408156
-0.0313309
-0.031131
-0.0310808
-0.0311729
-0.0314011
-0.0317807
-0.0323373
-0.0331127
-0.0341502
-0.0355299
-0.0372006
-0.0383244
-0.0273597
-0.0272458
-0.0272797
-0.0274384
-0.027713
-0.0281139
-0.0286705
-0.0294203
-0.0303998
-0.0316563
-0.033437
-0.0353485
-0.0235204
-0.0235068
-0.0236234
-0.023841
-0.0241494
-0.0245555
-0.0250827
-0.0257639
-0.0266394
-0.0277138
-0.0293251
-0.0318147
-0.0198056
-0.0199227
-0.0201394
-0.0204214
-0.0207569
-0.0211508
-0.0216255
-0.0221984
-0.0229293
-0.0238306
-0.0251827
-0.0277651
-0.0162363
-0.0165124
-0.0168484
-0.0172072
-0.0175744
-0.0179471
-0.018332
-0.0187777
-0.0192939
-0.0199537
-0.0210345
-0.0232932
-0.012836
-0.0132921
-0.0137648
-0.0142139
-0.0146219
-0.0149832
-0.0152992
-0.0155786
-0.0157742
-0.0159747
-0.0165101
-0.0180524
-0.00957163
-0.0102269
-0.0108542
-0.0114141
-0.0118908
-0.0122757
-0.0125466
-0.0126439
-0.0124935
-0.0120125
-0.0114396
-0.0111629
-0.00642505
-0.00730229
-0.00812156
-0.00884439
-0.0094519
-0.00991947
-0.0101889
-0.0101545
-0.00972003
-0.00865847
-0.0067184
-0.00335632
-0.0027323
-0.00277924
-0.00247932
-0.00218599
-0.00172731
-0.00108313
-0.00046078
-0.000240177
-0.00037893
-0.000823824
-0.00155791
-0.00252201
-0.00163247
-0.00168917
-0.00137851
-0.000864127
-0.000259173
0.000408786
0.000997154
0.00148242
0.00155517
0.00123305
0.000539165
-0.00046506
-0.000975536
-0.000720899
-0.00034608
0.00021123
0.000835681
0.00145972
0.0020333
0.00237396
0.00238855
0.00206812
0.00144002
0.000525558
-0.000605117
-0.000172909
0.00017523
0.000718714
0.00131818
0.00188468
0.00234682
0.00270554
0.00268943
0.00234742
0.00173539
0.000953466
-0.00361986
-0.00473055
-0.00577788
-0.0067059
-0.00746331
-0.00800198
-0.00825131
-0.00811996
-0.00752804
-0.00636849
-0.00469467
-0.00298117
-0.00167192
-0.00292774
-0.00413431
-0.00520642
-0.00605717
-0.00662548
-0.00684826
-0.00666684
-0.00603203
-0.00493831
-0.00352013
-0.00208723
-0.000666001
-0.00196285
-0.00319704
-0.00428408
-0.00512399
-0.00565823
-0.00583803
-0.00562906
-0.00501545
-0.00403121
-0.002807
-0.00161645
-0.000173996
-0.00152094
-0.00272563
-0.00371354
-0.00447089
-0.00493909
-0.00507992
-0.00487169
-0.00431986
-0.00346012
-0.00240156
-0.00134817
-0.00266964
-0.00269665
-0.0024289
-0.00218696
-0.00176809
-0.00114764
-0.000547913
-0.000330274
-0.000493126
-0.000946597
-0.00166965
-0.00259834
-0.0015619
-0.00159765
-0.00130517
-0.000829564
-0.000280488
0.000343163
0.000905839
0.0013643
0.00142148
0.00109903
0.000424364
-0.000534821
-0.000935779
-0.00065659
-0.000253726
0.000281938
0.000836536
0.00139969
0.0019343
0.00224666
0.00224621
0.00192535
0.00131939
0.00044835
-0.000579817
-0.000116386
0.000317274
0.000816696
0.00132932
0.00182554
0.00224163
0.00257131
0.00254147
0.00220024
0.00161684
0.00082046
-0.00365392
-0.00474371
-0.00578174
-0.00670912
-0.00748208
-0.00804618
-0.00831994
-0.00820235
-0.00760728
-0.00642762
-0.00472397
-0.00296283
-0.00168435
-0.00291539
-0.00411573
-0.00519367
-0.00607232
-0.00667615
-0.00692858
-0.00676219
-0.0061238
-0.0050093
-0.00356226
-0.00209927
-0.000662163
-0.00190897
-0.00314579
-0.00425368
-0.00513634
-0.00571489
-0.00592742
-0.00573414
-0.0051173
-0.00411315
-0.00286133
-0.00164105
-0.00023619
-0.00144679
-0.00263001
-0.00367437
-0.0044918
-0.00501185
-0.00518639
-0.00499283
-0.00443542
-0.00355456
-0.00246492
-0.00137276
)
;

boundaryField
{
    rotor
    {
        type            zeroGradient;
    }
    stator
    {
        type            zeroGradient;
    }
    AMI1
    {
        type            cyclicAMI;
        value           nonuniform List<scalar> 
48
(
-0.000569803
-0.000103049
0.000307754
0.000866387
0.00144881
0.00199186
0.00243433
0.0027659
0.00273067
0.00239195
0.00178202
0.00099629
-8.69523e-05
-0.0013719
-0.00252638
-0.00346553
-0.00419253
-0.00464282
-0.00478097
-0.00458896
-0.004078
-0.00328171
-0.00229996
-0.00130878
-0.000544318
-3.59587e-05
0.000430185
0.000938743
0.00145034
0.00193323
0.00233421
0.00263553
0.00258337
0.00223737
0.0016585
0.000882031
-0.000143052
-0.00130762
-0.00244403
-0.0034438
-0.00422437
-0.00472009
-0.00488721
-0.00470749
-0.00418939
-0.00337149
-0.0023576
-0.0013252
)
;
    }
    AMI2
    {
        type            cyclicAMI;
        value           nonuniform 0();
    }
    front
    {
        type            empty;
    }
    back
    {
        type            empty;
    }
    procBoundary3to2
    {
        type            processor;
        value           nonuniform List<scalar> 8(-0.00297436 -0.00207537 -0.00158303 -0.00132338 -0.00259429 -0.00153906 -0.000924893 -0.000557538);
    }
}


// ************************************************************************* //
