/*--------------------------------*- C++ -*----------------------------------*\
| =========                 |                                                 |
| \\      /  F ield         | OpenFOAM: The Open Source CFD Toolbox           |
|  \\    /   O peration     | Version:  v1806                                 |
|   \\  /    A nd           | Web:      www.OpenFOAM.com                      |
|    \\/     M anipulation  |                                                 |
\*---------------------------------------------------------------------------*/
FoamFile
{
    version     2.0;
    format      ascii;
    class       surfaceVectorField;
    location    "5";
    object      Uf;
}
// * * * * * * * * * * * * * * * * * * * * * * * * * * * * * * * * * * * * * //

dimensions      [0 1 -1 0 0 0 0];


internalField   nonuniform List<vector> 
1460
(
(0.0139653 0.131995 1.0899e-20)
(0.00329682 0.145589 -8.78685e-21)
(0.0223624 0.127651 -4.65051e-20)
(0.00847974 0.140726 -7.78693e-20)
(0.0310044 0.122686 -4.65051e-20)
(0.01751 0.138444 -7.36728e-21)
(0.0377706 0.117003 3.16821e-19)
(0.024825 0.133322 0)
(0.0440769 0.110951 5.85745e-19)
(0.0327704 0.128892 7.986e-20)
(0.0500995 0.104694 -8.88298e-20)
(0.0406437 0.124086 3.0781e-20)
(0.0559303 0.0982136 -5.3474e-19)
(0.0481964 0.119043 -5.07491e-20)
(0.0619936 0.0917037 8.74842e-20)
(0.0562001 0.113836 6.06876e-20)
(0.0684706 0.0857727 4.38905e-19)
(0.0652383 0.108328 -2.31073e-19)
(0.0754608 0.0814408 2.66067e-19)
(0.0759975 0.102598 3.2583e-19)
(0.0832878 0.0785142 3.62434e-19)
(0.0882328 0.0984365 4.1315e-19)
(0.101532 0.0958885 -2.03141e-19)
(0.0926345 0.0756433 6.5059e-19)
(0.00313833 0.151347 -9.88797e-20)
(0.00695416 0.157551 -1.99941e-20)
(0.00830828 0.150912 -3.85534e-20)
(0.00966345 0.155443 -1.47858e-19)
(0.0158232 0.148506 4.07605e-20)
(0.0174186 0.153108 2.05114e-19)
(0.0242167 0.145321 -2.43432e-19)
(0.0260279 0.149956 -6.91036e-20)
(0.033186 0.141532 -4.88024e-19)
(0.0355357 0.146187 -1.14706e-19)
(0.042046 0.137527 7.54654e-20)
(0.0455658 0.142241 2.12052e-20)
(0.0511154 0.133272 5.62251e-19)
(0.055963 0.138674 5.26284e-20)
(0.0621167 0.128452 -2.59646e-19)
(0.068374 0.135212 3.85941e-19)
(0.0766656 0.122663 -3.42773e-19)
(0.0836155 0.130941 -1.06555e-18)
(0.0941486 0.11667 4.87076e-19)
(0.101689 0.124924 1.63548e-19)
(0.11271 0.111802 -1.49082e-19)
(0.121464 0.119373 8.35554e-19)
(0.141076 0.115096 -5.97701e-19)
(0.131014 0.108313 -3.3082e-19)
(0.00917665 0.160535 -6.78269e-20)
(0.00152597 0.170868 -3.39315e-20)
(0.0163725 0.158022 9.91138e-20)
(0.00867747 0.168362 -9.81505e-20)
(0.0248972 0.155001 9.72745e-20)
(0.0175593 0.166083 1.11682e-19)
(0.0345903 0.151471 6.41554e-20)
(0.0275735 0.163005 -7.71087e-20)
(0.0456818 0.147663 4.09608e-19)
(0.0391602 0.1591 -8.81457e-20)
(0.0579717 0.144054 -2.69378e-21)
(0.0521287 0.15475 1.61793e-19)
(0.0714173 0.141037 -1.39648e-19)
(0.0662738 0.150613 -3.95831e-19)
(0.0870309 0.138245 -4.24953e-19)
(0.0830494 0.146805 1.40325e-19)
(0.106025 0.134734 -5.65563e-19)
(0.103313 0.142705 -1.15169e-19)
(0.127534 0.130094 5.13549e-19)
(0.126281 0.137142 -1.26388e-21)
(0.148932 0.12505 3.93291e-19)
(0.149468 0.131211 2.19251e-19)
(0.17005 0.125781 -2.07384e-19)
(0.167903 0.120275 -4.73503e-19)
(0.00278603 0.178877 -6.43843e-20)
(-2.87635e-05 0.187788 -3.47254e-20)
(0.0113083 0.176135 -8.74202e-20)
(0.00770972 0.185274 4.18305e-20)
(0.0218439 0.173273 -6.24255e-20)
(0.0186814 0.182765 -5.72359e-20)
(0.0334473 0.169884 -2.33223e-19)
(0.0304252 0.179666 -5.45413e-20)
(0.0465661 0.165464 -3.48436e-19)
(0.0435074 0.175769 -1.30439e-19)
(0.0619324 0.160374 -2.3617e-19)
(0.0589752 0.170815 -1.20388e-19)
(0.0802723 0.155075 -1.1606e-19)
(0.0766725 0.164816 -1.39965e-20)
(0.101845 0.149539 4.65659e-19)
(0.0970824 0.158 9.3903e-20)
(0.126079 0.143682 4.63266e-19)
(0.120768 0.150824 4.72015e-19)
(0.150668 0.137449 -3.08098e-19)
(0.145963 0.143267 1.73918e-19)
(0.172642 0.131269 -3.97124e-19)
(0.16927 0.135986 -2.21983e-19)
(0.188058 0.129494 -2.53996e-19)
(0.190212 0.125652 9.91095e-20)
(0.00374233 0.194362 7.36285e-20)
(-0.00150534 0.203983 1.18292e-20)
(0.0138156 0.191736 7.51402e-20)
(0.00742596 0.20167 5.18317e-20)
(0.0260257 0.188725 -4.90836e-20)
(0.020272 0.199493 2.3763e-21)
(0.0394518 0.185123 5.24934e-20)
(0.0338372 0.196478 2.5397e-20)
(0.0547332 0.180779 1.03923e-19)
(0.0489756 0.192319 -5.63751e-20)
(0.0722027 0.175156 1.06746e-19)
(0.0662769 0.186884 2.53125e-19)
(0.0925272 0.168097 2.01794e-19)
(0.0861011 0.179614 -2.28348e-19)
(0.116156 0.159736 9.50486e-20)
(0.108776 0.169914 1.22272e-20)
(0.141735 0.15065 1.78114e-19)
(0.1341 0.158707 1.56887e-19)
(0.166029 0.141718 2.6363e-19)
(0.15947 0.147598 3.60267e-20)
(0.186016 0.133756 -7.66974e-20)
(0.181101 0.137823 4.92967e-19)
(0.196833 0.129881 -4.23394e-19)
(0.200456 0.127112 -1.63083e-19)
(0.00256264 0.210629 -1.09237e-20)
(-0.00219395 0.220442 1.08579e-20)
(0.0142736 0.209018 -2.16697e-20)
(0.00861435 0.218692 -2.19281e-20)
(0.028206 0.206493 7.84958e-20)
(0.022962 0.217455 0)
(0.0433155 0.202842 -8.52407e-20)
(0.0379736 0.214826 1.19038e-20)
(0.060312 0.197659 9.15591e-20)
(0.0544443 0.210351 -2.30399e-19)
(0.0797831 0.190682 -8.23859e-20)
(0.0730873 0.203774 1.89847e-19)
(0.102086 0.181362 -4.2714e-19)
(0.0939655 0.194784 -6.81026e-20)
(0.126983 0.169746 7.52329e-20)
(0.117503 0.182428 -2.20208e-19)
(0.152469 0.156815 1.26742e-20)
(0.142834 0.167322 1.52509e-19)
(0.175093 0.144452 2.65741e-19)
(0.167033 0.152082 -2.77281e-20)
(0.192179 0.134185 1.47906e-19)
(0.186326 0.139089 7.55834e-20)
(0.199022 0.129278 1.79406e-19)
(0.203179 0.126377 -1.28756e-19)
(0.00356142 0.227286 -1.64223e-23)
(-0.00172252 0.236737 6.1102e-21)
(0.0169922 0.226884 0)
(0.0113406 0.236308 -2.7212e-20)
(0.0322579 0.225137 -6.8771e-20)
(0.0268818 0.236342 -2.23314e-20)
(0.0485822 0.221625 -1.32801e-19)
(0.0428378 0.234288 -5.13722e-21)
(0.0666044 0.215918 -1.36525e-19)
(0.0600914 0.22965 -1.15608e-19)
(0.0867056 0.207405 2.08078e-19)
(0.0790221 0.222008 -1.16471e-19)
(0.109318 0.195762 1.45264e-19)
(0.0999754 0.211053 1.71866e-19)
(0.133951 0.180864 -1.43731e-19)
(0.123147 0.196169 -1.36822e-19)
(0.158287 0.163901 1.16589e-19)
(0.147378 0.177616 -2.14272e-19)
(0.17884 0.147592 -2.21985e-19)
(0.16974 0.158212 3.06831e-19)
(0.193255 0.134428 1.06398e-19)
(0.186764 0.141432 -2.53195e-19)
(0.197162 0.12905 2.74746e-19)
(0.201619 0.125111 3.29167e-19)
(0.0060417 0.244587 -2.13224e-20)
(0.00039441 0.252789 4.15237e-22)
(0.0211865 0.245706 -5.01604e-20)
(0.0157265 0.254678 -6.80291e-21)
(0.0372503 0.244907 4.26377e-20)
(0.0319168 0.255815 2.7943e-21)
(0.0541165 0.241637 1.58003e-20)
(0.048129 0.254077 1.12304e-19)
(0.0723367 0.235222 -9.52643e-20)
(0.0652146 0.249245 -7.58921e-20)
(0.0922469 0.225217 -1.57332e-19)
(0.0836605 0.240679 1.20337e-19)
(0.114126 0.211401 -1.12651e-19)
(0.103909 0.227977 -1.13826e-19)
(0.13743 0.193647 -2.07203e-19)
(0.125929 0.21093 0)
(0.159955 0.173076 -1.83862e-20)
(0.148513 0.18975 -2.09364e-19)
(0.178456 0.152765 2.78767e-19)
(0.16894 0.166837 2.55893e-19)
(0.190882 0.136084 -8.69189e-20)
(0.18416 0.14615 3.00434e-20)
(0.193163 0.13044 -2.96747e-19)
(0.197685 0.124423 -2.76664e-19)
(0.0102734 0.262689 1.53414e-20)
(0.00467447 0.26823 7.93978e-22)
(0.0266483 0.265104 4.68253e-20)
(0.0212945 0.273405 8.47341e-21)
(0.042877 0.264611 7.24981e-20)
(0.0370544 0.274568 5.10255e-20)
(0.0593933 0.261204 2.09541e-20)
(0.0527941 0.272146 4.71552e-20)
(0.0769627 0.254192 1.40938e-19)
(0.0689572 0.266497 8.97712e-20)
(0.0959982 0.24293 1.66681e-19)
(0.0861201 0.257026 4.21687e-20)
(0.116537 0.227379 0)
(0.105207 0.243348 5.67448e-20)
(0.138001 0.207567 0)
(0.125913 0.22516 -9.89529e-20)
(0.158541 0.184451 6.885e-20)
(0.146992 0.202643 1.03598e-19)
(0.17534 0.160851 5.71311e-22)
(0.165928 0.177642 6.90855e-20)
(0.186582 0.140526 -1.81033e-19)
(0.180107 0.153859 -2.39758e-19)
(0.188705 0.134687 8.29224e-20)
(0.192804 0.125701 -1.80017e-19)
(0.015954 0.281155 -6.28628e-21)
(0.0110773 0.281052 3.97672e-21)
(0.0322569 0.28341 1.21315e-20)
(0.0261633 0.288514 1.85491e-20)
(0.0476031 0.281817 2.52185e-20)
(0.0400643 0.287454 4.9333e-21)
(0.0629051 0.277397 1.15923e-19)
(0.0545327 0.282537 2.84198e-20)
(0.0789068 0.26889 -8.92747e-21)
(0.0685663 0.275445 6.98542e-20)
(0.0967531 0.256714 -6.79669e-20)
(0.0845642 0.265274 -1.82803e-19)
(0.116317 0.240543 -4.26265e-20)
(0.102724 0.251686 6.71091e-20)
(0.13642 0.220175 5.62082e-21)
(0.122516 0.234325 -8.58437e-20)
(0.155448 0.196318 1.02724e-19)
(0.142843 0.212789 1.36549e-19)
(0.171202 0.17116 -1.75734e-19)
(0.161295 0.188143 -1.51549e-20)
(0.182172 0.148187 2.68467e-20)
(0.175555 0.163315 -1.74793e-19)
(0.184901 0.141736 2.53418e-19)
(0.188824 0.130181 1.54517e-19)
(0.0254447 0.29488 2.86802e-20)
(0.015316 0.281119 -7.06439e-21)
(0.0363483 0.291875 1.22726e-20)
(0.0241891 0.281958 3.04121e-20)
(0.0481515 0.287774 9.54563e-21)
(0.0366948 0.27695 -3.43658e-20)
(0.061354 0.280846 -1.62796e-20)
(0.0482493 0.268905 5.53062e-23)
(0.0755362 0.271623 -1.02292e-19)
(0.0604385 0.261751 -4.536e-20)
(0.0918708 0.259481 -4.8352e-20)
(0.0755857 0.254356 -4.52077e-20)
(0.111077 0.244449 1.91039e-20)
(0.0941136 0.244074 5.79995e-20)
(0.131484 0.225829 4.12553e-20)
(0.114081 0.230311 -1.5277e-20)
(0.150726 0.203862 1.64e-20)
(0.134599 0.212719 5.80422e-20)
(0.166861 0.179874 -1.74746e-20)
(0.1536 0.191726 3.96146e-20)
(0.178768 0.156476 4.88137e-20)
(0.169003 0.169112 3.56081e-20)
(0.180058 0.147601 -2.49725e-21)
(0.186859 0.136469 5.10706e-20)
(0.0130902 0.280239 -5.73807e-21)
(-0.00610398 0.236975 -3.4607e-21)
(0.0268057 0.264969 -1.24883e-20)
(0.00840946 0.231327 -3.81094e-21)
(0.0387755 0.255954 -3.81206e-20)
(0.0227769 0.225545 -1.04359e-20)
(0.049962 0.249405 -2.49239e-20)
(0.0336771 0.219323 -2.51318e-20)
(0.063205 0.24415 8.39483e-21)
(0.0456154 0.215879 0)
(0.07962 0.238104 5.56537e-20)
(0.0607162 0.214468 1.07737e-20)
(0.098842 0.228653 2.18983e-20)
(0.0790122 0.211996 4.4471e-20)
(0.119825 0.21554 1.22958e-21)
(0.0996587 0.206072 -2.55428e-20)
(0.140165 0.198805 7.13478e-20)
(0.120853 0.195725 2.33069e-20)
(0.157867 0.179318 7.46566e-20)
(0.140493 0.180872 4.49096e-20)
(0.171761 0.158731 -1.81616e-20)
(0.156792 0.163031 3.01118e-20)
(0.18182 0.13926 -4.80244e-20)
(0.169133 0.144376 -4.84249e-20)
(0.103898 0.0715038 -1.95866e-19)
(0.11541 0.0935219 5.26948e-19)
(0.116146 0.0659069 -1.15663e-18)
(0.128958 0.0904601 -4.20804e-19)
(0.127282 0.0597977 -1.93261e-19)
(0.14094 0.0868337 -4.28744e-19)
(0.135399 0.0540441 -9.30546e-20)
(0.150088 0.0828923 6.65564e-19)
(0.139606 0.0487798 -9.49529e-20)
(0.155589 0.0783599 -6.31127e-19)
(0.140216 0.0433944 2.83086e-19)
(0.157369 0.0724997 1.14327e-19)
(0.138129 0.0365688 2.92901e-19)
(0.155892 0.0652098 9.82134e-20)
(0.133931 0.0269889 1.45285e-19)
(0.151867 0.0570822 4.76611e-19)
(0.13021 0.0144828 -2.50148e-19)
(0.146747 0.0443753 -4.78942e-19)
(0.129559 0.000479446 2.5298e-20)
(0.141785 0.0268971 0)
(0.131072 -0.00961032 2.52498e-20)
(0.138129 0.0107992 2.57684e-20)
(0.136467 -0.00116607 -1.02783e-20)
(0.147693 0.105744 2.93024e-19)
(0.158719 0.1114 -1.99676e-19)
(0.161244 0.103705 2.95585e-19)
(0.173198 0.107963 1.52044e-19)
(0.170779 0.101845 4.22552e-19)
(0.183851 0.104859 3.31589e-20)
(0.176331 0.0995107 1.31573e-19)
(0.190544 0.10211 3.97206e-19)
(0.17836 0.0957375 -4.27005e-19)
(0.193595 0.099424 -2.59101e-19)
(0.176345 0.0896229 -7.23633e-20)
(0.193044 0.0970893 -5.12703e-19)
(0.171756 0.0812094 2.86361e-19)
(0.190399 0.0913837 4.36117e-19)
(0.165499 0.0691589 -1.50228e-19)
(0.1851 0.0836082 1.34104e-19)
(0.158253 0.0522622 -2.2839e-19)
(0.177735 0.0699711 -2.31608e-19)
(0.151297 0.0318542 0)
(0.16874 0.0484235 -6.57826e-20)
(0.147307 0.0119617 -1.04231e-20)
(0.159144 0.0229595 7.13384e-20)
(0.152157 -0.00224777 -1.63988e-21)
(0.183268 0.115863 -3.55382e-19)
(0.186449 0.12095 -1.73133e-19)
(0.194712 0.111766 -1.17287e-19)
(0.198423 0.116801 -2.69268e-19)
(0.202414 0.108106 1.21876e-21)
(0.206355 0.113438 -2.17936e-19)
(0.206719 0.105192 -1.37361e-21)
(0.210943 0.110955 4.93319e-19)
(0.207872 0.103213 -3.49079e-19)
(0.213008 0.109439 -1.21234e-19)
(0.20697 0.10166 -1.47237e-21)
(0.213353 0.108416 -5.13814e-19)
(0.202718 0.0977331 2.87223e-19)
(0.211816 0.107664 4.1629e-19)
(0.195852 0.0887896 6.47805e-20)
(0.208588 0.104522 -1.23346e-19)
(0.186097 0.0711179 -6.24197e-20)
(0.203042 0.0957685 1.51692e-19)
(0.174536 0.0432811 3.9956e-21)
(0.194624 0.0757594 -1.20546e-19)
(0.166544 0.0124302 8.21564e-20)
(0.182581 0.0409315 1.01751e-19)
(0.168075 0.00186458 4.18268e-20)
(0.203031 0.120891 -8.28783e-20)
(0.201595 0.123897 1.93197e-19)
(0.211501 0.11722 -3.70623e-19)
(0.210393 0.119263 -1.93833e-19)
(0.216358 0.114821 2.78918e-19)
(0.215387 0.115681 -9.88713e-20)
(0.218595 0.113623 3.76126e-19)
(0.217746 0.113222 4.47643e-19)
(0.219368 0.113225 -2.84995e-19)
(0.218727 0.111849 7.82845e-20)
(0.219331 0.113188 -9.60352e-20)
(0.219411 0.111403 -4.47553e-19)
(0.218703 0.112999 1.37768e-21)
(0.220223 0.111947 2.76342e-19)
(0.21635 0.110054 -3.91887e-20)
(0.220886 0.112743 -1.04724e-19)
(0.210514 0.0987443 9.4625e-20)
(0.220193 0.111071 7.32985e-20)
(0.199587 0.0719532 -2.71715e-20)
(0.216459 0.0995618 -5.41844e-20)
(0.18609 0.0298391 6.10541e-20)
(0.207316 0.0665784 6.61606e-21)
(0.188946 0.0118346 3.30244e-20)
(0.209644 0.121733 8.37108e-20)
(0.206744 0.123637 1.31114e-19)
(0.21462 0.117464 8.37108e-20)
(0.212053 0.118813 -4.78563e-20)
(0.21681 0.114167 6.68374e-20)
(0.214368 0.115144 0)
(0.217763 0.11179 1.46227e-19)
(0.215358 0.112358 -2.12267e-19)
(0.218698 0.110479 -8.07955e-20)
(0.216349 0.110269 -1.32117e-19)
(0.220336 0.110494 -7.35332e-20)
(0.218222 0.108857 -8.47646e-20)
(0.222655 0.111884 1.72722e-19)
(0.220992 0.108801 2.35904e-19)
(0.225111 0.113851 8.68292e-21)
(0.224787 0.11028 1.81796e-20)
(0.225661 0.111626 -7.79128e-20)
(0.228528 0.113015 -4.27843e-21)
(0.220501 0.0937277 -2.26262e-20)
(0.230248 0.11153 0)
(0.207331 0.0487381 -2.26262e-20)
(0.228182 0.089626 -2.41692e-21)
(0.215641 0.0284821 -2.19146e-23)
(0.209148 0.120603 -1.2359e-21)
(0.205946 0.122307 1.48124e-20)
(0.211822 0.116293 -1.34369e-19)
(0.209076 0.117377 -1.27424e-19)
(0.213046 0.113005 -2.82438e-19)
(0.210546 0.113705 1.06677e-19)
(0.214245 0.110425 -4.97016e-19)
(0.211985 0.110731 -2.7658e-19)
(0.216206 0.108359 -1.36376e-19)
(0.214207 0.10817 3.7533e-20)
(0.219224 0.106919 2.28281e-19)
(0.217557 0.105905 7.91341e-20)
(0.223452 0.106835 7.94395e-20)
(0.222045 0.104473 2.03981e-19)
(0.228631 0.109112 4.70635e-21)
(0.22768 0.104562 -1.15508e-20)
(0.233856 0.112431 7.51396e-20)
(0.233676 0.107464 1.31715e-19)
(0.235724 0.106076 2.02893e-20)
(0.238448 0.111775 2.46931e-20)
(0.227649 0.0680115 2.02671e-20)
(0.24267 0.103748 5.05076e-20)
(0.242684 0.0492577 8.4584e-21)
(0.205707 0.118864 -1.13015e-19)
(0.202293 0.120803 -2.1665e-19)
(0.207743 0.114503 1.16614e-19)
(0.204654 0.115401 1.66312e-20)
(0.209574 0.111092 1.16386e-19)
(0.206517 0.111472 8.47455e-21)
(0.212193 0.108148 2.65381e-19)
(0.209158 0.108143 1.02951e-19)
(0.215914 0.105541 2.56806e-19)
(0.213043 0.105095 2.68134e-19)
(0.220782 0.103324 5.2741e-20)
(0.21838 0.102221 -3.04592e-19)
(0.226622 0.101972 1.13483e-19)
(0.224906 0.0999598 8.6327e-20)
(0.232951 0.102684 1.16795e-19)
(0.232005 0.0990185 1.11652e-19)
(0.239668 0.106817 8.13424e-20)
(0.238878 0.100634 2.24532e-21)
(0.245774 0.108943 5.62345e-20)
(0.244357 0.105869 -2.81755e-20)
(0.24404 0.0831789 3.89214e-20)
(0.251035 0.108396 4.05742e-20)
(0.264579 0.068889 2.11361e-20)
(0.201019 0.116979 -8.73824e-20)
(0.197544 0.119993 -1.60942e-19)
(0.203276 0.112044 -9.44025e-20)
(0.199999 0.113366 7.35714e-20)
(0.206099 0.108202 -6.23888e-21)
(0.202745 0.1087 -1.02444e-19)
(0.210239 0.104763 1.04065e-19)
(0.206819 0.104712 2.34412e-20)
(0.215969 0.101514 -3.00225e-19)
(0.212565 0.100904 2.43287e-19)
(0.22305 0.0985843 -2.7279e-19)
(0.219944 0.0972711 -3.8334e-19)
(0.230853 0.0966802 8.59974e-20)
(0.228194 0.0942391 -1.60751e-20)
(0.238206 0.0966856 -4.09679e-21)
(0.236107 0.0930488 9.28968e-20)
(0.244983 0.100035 -1.09724e-19)
(0.243181 0.0942407 -5.57779e-20)
(0.252114 0.10603 -4.45118e-20)
(0.248856 0.0986396 -5.50903e-20)
(0.25607 0.0926436 1.8652e-20)
(0.255337 0.105719 -1.14892e-20)
(0.2792 0.0829738 -3.23515e-21)
(0.196222 0.116067 1.43992e-22)
(0.193294 0.121269 -1.12845e-19)
(0.199212 0.109818 6.65399e-20)
(0.196531 0.112527 1.54382e-19)
(0.203306 0.105114 -7.38231e-20)
(0.200538 0.106459 -9.26778e-20)
(0.209173 0.100822 1.63177e-19)
(0.206226 0.101389 2.38634e-20)
(0.216845 0.0965762 1.63284e-19)
(0.213636 0.0964792 3.49499e-19)
(0.225556 0.0927721 -1.23556e-19)
(0.222052 0.0917621 -1.33835e-19)
(0.234051 0.0902974 -8.68922e-21)
(0.230208 0.0880074 -5.13132e-20)
(0.24169 0.090217 4.16933e-20)
(0.23734 0.0863858 9.99961e-20)
(0.248394 0.093159 0)
(0.243691 0.0875441 0)
(0.255299 0.0998716 -2.27431e-20)
(0.249832 0.0914478 0)
(0.263587 0.0963377 -3.91677e-20)
(0.257241 0.0983008 -3.61072e-20)
(0.285629 0.0880293 -1.09327e-21)
(0.193209 0.11764 4.09976e-20)
(0.19069 0.125343 -4.74919e-20)
(0.197576 0.109145 -5.54306e-21)
(0.195297 0.113825 5.98484e-21)
(0.203312 0.102735 5.79019e-21)
(0.200588 0.105501 5.95779e-20)
(0.210698 0.0969905 2.10651e-19)
(0.207183 0.0986373 -1.05709e-19)
(0.219015 0.0914734 5.09569e-20)
(0.214586 0.0922711 6.15966e-20)
(0.226986 0.0866948 -6.02868e-20)
(0.221621 0.0864683 2.40903e-20)
(0.233885 0.0835976 5.84675e-20)
(0.227383 0.0819148 -6.61821e-20)
(0.240119 0.0829612 5.84675e-20)
(0.232101 0.0795038 -1.41868e-20)
(0.246718 0.0851608 0)
(0.237149 0.0797941 0)
(0.25493 0.0903485 -1.32711e-20)
(0.244103 0.0825917 -1.85144e-20)
(0.266656 0.0914385 3.23302e-21)
(0.255931 0.0876997 -4.18078e-21)
(0.28277 0.0812309 1.44859e-20)
(0.192818 0.121094 -8.22157e-20)
(0.18763 0.129486 0)
(0.198468 0.109721 7.13628e-20)
(0.193485 0.115368 -1.07763e-19)
(0.204753 0.10084 -5.18509e-20)
(0.199021 0.104392 9.65924e-20)
(0.211434 0.0932136 -2.55163e-19)
(0.204546 0.0953252 -1.64982e-19)
(0.217502 0.0864467 3.58147e-20)
(0.209446 0.087428 5.41695e-21)
(0.222137 0.0809008 1.89292e-20)
(0.212959 0.0807332 8.17445e-20)
(0.225601 0.0770613 -1.39715e-19)
(0.215139 0.0755985 -9.3346e-20)
(0.229476 0.0751121 -7.25303e-20)
(0.217143 0.0722181 -5.09237e-20)
(0.236016 0.0749886 -1.86876e-20)
(0.22096 0.0705887 1.63485e-20)
(0.247766 0.0765336 -1.12542e-20)
(0.228711 0.0700582 6.43174e-21)
(0.266061 0.0733323 5.58436e-21)
(0.24517 0.0715096 -8.27847e-21)
(0.266965 0.060644 -1.50582e-21)
(0.189066 0.122546 -2.50452e-20)
(0.177889 0.126957 0)
(0.194719 0.108928 -7.97543e-20)
(0.184035 0.111915 -2.52541e-20)
(0.199402 0.0978369 -1.57275e-20)
(0.188467 0.0993411 -1.12848e-20)
(0.202964 0.0885894 9.47554e-20)
(0.191468 0.0888632 5.34024e-20)
(0.205022 0.0808842 5.24161e-20)
(0.192923 0.0801799 4.98525e-20)
(0.205773 0.07477 -2.98602e-20)
(0.192964 0.0732401 -2.69075e-20)
(0.206268 0.0702226 -5.01711e-21)
(0.192449 0.0680026 -1.17086e-20)
(0.208156 0.0668964 3.76413e-20)
(0.192778 0.0641214 4.62915e-20)
(0.213617 0.0638608 3.98756e-20)
(0.195538 0.0608863 -1.52878e-20)
(0.226412 0.0592539 8.4982e-21)
(0.202329 0.056158 2.76726e-20)
(0.25549 0.0433855 -1.59154e-20)
(0.215439 0.0465788 -1.62848e-20)
(0.227291 0.0197121 1.47398e-24)
(0.130345 -0.0136187 1.77103e-20)
(0.141479 -0.000327217 3.26641e-20)
(0.125475 -0.021781 2.3448e-20)
(0.139486 -0.00739489 2.30277e-20)
(0.120191 -0.0295103 2.28881e-19)
(0.136026 -0.0162424 0)
(0.114715 -0.0367608 4.78684e-20)
(0.131959 -0.0249734 2.33137e-19)
(0.109053 -0.0434447 -5.41165e-19)
(0.127509 -0.0331863 -1.84327e-19)
(0.103143 -0.0496113 -3.7878e-21)
(0.12285 -0.0408687 -6.05884e-19)
(0.096955 -0.0555466 2.67354e-19)
(0.118084 -0.0483605 8.32169e-19)
(0.090777 -0.0617474 -2.62957e-19)
(0.113091 -0.0565198 6.49116e-20)
(0.0853267 -0.068297 9.65701e-20)
(0.107675 -0.0657489 -1.79456e-21)
(0.0815371 -0.0753043 -9.19592e-20)
(0.102322 -0.0767365 2.75462e-19)
(0.0789378 -0.0832285 -9.10018e-20)
(0.0987448 -0.089141 -6.86655e-19)
(0.0965025 -0.102669 1.06056e-19)
(0.0761207 -0.0928943 7.45701e-19)
(0.150439 0.000816895 3.86718e-20)
(0.156887 -0.00260053 3.18424e-20)
(0.14955 -0.00647645 -8.72495e-22)
(0.155739 -0.00817237 -3.42973e-20)
(0.147399 -0.0159273 0)
(0.153236 -0.0174695 0)
(0.14432 -0.0253237 0)
(0.149981 -0.0270587 6.46051e-20)
(0.140703 -0.0342105 -2.43511e-19)
(0.146311 -0.0366827 0)
(0.136929 -0.0427823 2.33972e-19)
(0.142589 -0.0466209 -4.57334e-19)
(0.132781 -0.0518829 6.36593e-19)
(0.139218 -0.0570329 6.22321e-19)
(0.127959 -0.0633394 3.29126e-19)
(0.135754 -0.0698036 2.15427e-20)
(0.12226 -0.0783661 1.70515e-19)
(0.131201 -0.0853681 1.73366e-19)
(0.116636 -0.0960618 -3.23429e-19)
(0.125272 -0.103775 -1.25672e-19)
(0.112214 -0.114813 -4.81512e-19)
(0.120169 -0.12381 -3.28838e-19)
(0.116126 -0.143542 -1.61826e-19)
(0.109028 -0.133369 4.30446e-19)
(0.162296 -0.00802181 -4.32924e-20)
(0.171795 4.42173e-05 -4.28246e-20)
(0.15955 -0.016603 -3.51036e-20)
(0.169856 -0.00725178 -7.10561e-21)
(0.156241 -0.0261816 6.57038e-20)
(0.167348 -0.0176854 -5.49636e-20)
(0.152486 -0.0363345 6.57038e-20)
(0.16401 -0.0286892 5.7595e-21)
(0.148882 -0.0474727 -2.14786e-19)
(0.159882 -0.0408378 1.15785e-19)
(0.145386 -0.0594991 -7.94048e-20)
(0.155763 -0.0534767 -3.46672e-19)
(0.142523 -0.0728989 -1.07834e-20)
(0.151887 -0.067863 2.51868e-19)
(0.139621 -0.0888981 -1.46896e-19)
(0.14828 -0.0850903 -1.49128e-19)
(0.135906 -0.108476 -1.2781e-19)
(0.143937 -0.10587 0)
(0.131192 -0.130346 -1.2781e-19)
(0.138264 -0.129177 -2.2625e-19)
(0.12622 -0.151801 0)
(0.132436 -0.152348 1.06787e-19)
(0.127025 -0.172601 -1.90063e-19)
(0.121496 -0.170615 1.09392e-19)
(0.179318 -0.00113461 -6.48234e-21)
(0.188343 0.00105437 -3.46888e-20)
(0.17736 -0.010409 -2.68401e-20)
(0.186266 -0.00734348 2.93748e-20)
(0.174476 -0.0219214 -1.16376e-19)
(0.183841 -0.0189108 3.96105e-20)
(0.170784 -0.0342726 5.70069e-20)
(0.180633 -0.0313123 -6.14078e-20)
(0.165975 -0.0478972 -9.18126e-21)
(0.176548 -0.044836 1.19208e-19)
(0.161165 -0.0638225 -1.2459e-20)
(0.171422 -0.0608281 -4.33579e-19)
(0.156144 -0.0826083 1.15441e-19)
(0.165558 -0.0786874 1.42586e-20)
(0.150802 -0.104633 0)
(0.159018 -0.0994906 4.84275e-19)
(0.144996 -0.129166 -1.01661e-19)
(0.151928 -0.123577 -1.87457e-19)
(0.138758 -0.153641 7.99162e-21)
(0.144411 -0.148764 6.99448e-20)
(0.132558 -0.175142 -8.45614e-20)
(0.137185 -0.171591 1.96509e-19)
(0.130653 -0.189631 -3.55029e-19)
(0.126878 -0.192052 8.40014e-20)
(0.194938 -0.00396536 1.15833e-21)
(0.204201 0.00176874 -8.33727e-21)
(0.19261 -0.0143474 9.84976e-20)
(0.202346 -0.00747391 2.02818e-20)
(0.189711 -0.0269793 9.84976e-20)
(0.200333 -0.0207173 5.61374e-20)
(0.186066 -0.0408795 0)
(0.197277 -0.0347879 0)
(0.18165 -0.0564921 -3.10406e-19)
(0.193042 -0.0503385 5.00313e-21)
(0.175847 -0.0741743 -4.1847e-19)
(0.187464 -0.0679974 -3.1941e-19)
(0.168758 -0.0948628 3.84576e-19)
(0.179934 -0.088096 -1.07407e-19)
(0.160473 -0.118853 2.99653e-19)
(0.170152 -0.111106 4.11771e-19)
(0.151498 -0.144431 -1.46397e-20)
(0.159075 -0.136586 -1.92545e-19)
(0.142678 -0.168211 2.60164e-19)
(0.148185 -0.161556 3.20208e-19)
(0.134782 -0.187364 -7.60527e-20)
(0.138619 -0.182334 2.1148e-19)
(0.130765 -0.197107 -4.24927e-20)
(0.128123 -0.200912 -1.43365e-20)
(0.210897 -0.00240718 1.04676e-20)
(0.220458 0.00216389 -9.85698e-21)
(0.209544 -0.0145144 -2.32681e-20)
(0.219017 -0.00895387 -1.31492e-20)
(0.207122 -0.0288593 -4.38138e-20)
(0.217921 -0.0235348 -1.03758e-20)
(0.203361 -0.0443789 5.06823e-21)
(0.215242 -0.0388172 0)
(0.198116 -0.0618049 1.01718e-21)
(0.210578 -0.0557294 1.48029e-19)
(0.190909 -0.0816225 -5.08172e-21)
(0.20387 -0.0745194 -2.7909e-19)
(0.181395 -0.104205 -8.70527e-20)
(0.194568 -0.0956503 1.36513e-19)
(0.169692 -0.129205 -8.70527e-20)
(0.181882 -0.119377 -2.1164e-19)
(0.156863 -0.154355 1.44345e-19)
(0.166775 -0.144622 -1.25417e-19)
(0.144769 -0.176174 2.68545e-19)
(0.151856 -0.168177 1.54086e-19)
(0.134769 -0.19228 2.4828e-19)
(0.139292 -0.186464 -3.23223e-19)
(0.129792 -0.19822 1.07716e-19)
(0.127105 -0.202439 1.03036e-19)
(0.227418 -0.00389645 -3.4366e-20)
(0.236601 0.00154315 -2.9842e-23)
(0.22711 -0.0175407 -2.43992e-22)
(0.236426 -0.0117845 -3.47317e-20)
(0.225371 -0.0330107 3.43704e-20)
(0.236505 -0.0274546 -6.93872e-20)
(0.221798 -0.0495687 1.45231e-19)
(0.234345 -0.0435974 5.45531e-20)
(0.215837 -0.0677815 -1.31633e-19)
(0.229466 -0.0610416 9.19744e-20)
(0.207077 -0.0881063 -1.39582e-19)
(0.221556 -0.0800807 -1.03922e-19)
(0.195125 -0.110885 1.31469e-20)
(0.210272 -0.10116 3.09168e-20)
(0.179983 -0.135448 -2.54319e-19)
(0.19496 -0.124364 -9.23812e-21)
(0.163063 -0.15927 -1.18815e-19)
(0.176238 -0.148343 5.70701e-20)
(0.147142 -0.178922 -4.50103e-19)
(0.157135 -0.169991 1.97358e-19)
(0.134478 -0.192403 -4.731e-19)
(0.140943 -0.186051 -3.68168e-19)
(0.129098 -0.195679 -2.72018e-19)
(0.125515 -0.200141 -2.6282e-20)
(0.244618 -0.00639154 -1.33142e-23)
(0.252557 -0.000610287 -9.43333e-21)
(0.245716 -0.0216947 -1.05312e-19)
(0.254617 -0.0161476 3.97558e-20)
(0.244814 -0.0378591 -5.09969e-20)
(0.255781 -0.0323763 -1.1736e-19)
(0.241397 -0.0548409 -3.22657e-22)
(0.253918 -0.0487204 5.57424e-20)
(0.2347 -0.0731378 1.22685e-19)
(0.248823 -0.0658377 -1.27956e-19)
(0.224392 -0.0931051 6.88582e-20)
(0.239886 -0.0843121 2.67927e-20)
(0.210208 -0.115005 8.05604e-21)
(0.226771 -0.104547 4.35202e-20)
(0.192105 -0.138131 3.07371e-19)
(0.209277 -0.126463 1.96477e-19)
(0.171469 -0.160103 3.78326e-19)
(0.187803 -0.148708 -3.14728e-20)
(0.151548 -0.177766 2.83094e-19)
(0.165056 -0.168467 3.19386e-19)
(0.135514 -0.189428 -1.63529e-19)
(0.144949 -0.182882 8.66121e-20)
(0.129904 -0.191334 -7.69546e-20)
(0.124403 -0.195856 -3.36052e-19)
(0.262591 -0.0105845 3.06557e-20)
(0.267943 -0.00480513 -8.46045e-21)
(0.264958 -0.0270724 2.8724e-20)
(0.273248 -0.0216711 4.35966e-20)
(0.264448 -0.0433623 -1.12723e-20)
(0.274515 -0.0375048 2.40207e-20)
(0.260852 -0.0598903 -7.26449e-20)
(0.272077 -0.0532356 0)
(0.253555 -0.0774342 -2.28204e-19)
(0.266227 -0.0693564 -8.04267e-20)
(0.241877 -0.0963686 3.05066e-22)
(0.256385 -0.0864085 -1.22176e-20)
(0.225887 -0.116767 2.34698e-19)
(0.242172 -0.10539 3.22147e-20)
(0.205667 -0.137976 -1.45777e-19)
(0.223436 -0.125896 1.4376e-19)
(0.182358 -0.158016 -9.44826e-20)
(0.200509 -0.146591 -2.14251e-19)
(0.159007 -0.174137 1.18076e-19)
(0.175462 -0.164944 7.22852e-20)
(0.139295 -0.184822 1.76523e-19)
(0.152078 -0.178496 -1.08568e-19)
(0.13352 -0.186728 1.27772e-19)
(0.125107 -0.190868 3.21969e-19)
(0.281019 -0.0161154 5.27695e-21)
(0.280857 -0.0110963 -4.00271e-21)
(0.283326 -0.0326163 3.81051e-20)
(0.288518 -0.026611 -5.57074e-21)
(0.281817 -0.0480568 3.50204e-20)
(0.287579 -0.0406257 2.03967e-20)
(0.277341 -0.0632908 -8.1837e-21)
(0.2827 -0.0549643 0)
(0.26865 -0.0791519 1.35359e-19)
(0.275522 -0.0688726 1.22544e-20)
(0.25607 -0.0968234 2.03352e-20)
(0.265123 -0.0846269 7.53698e-20)
(0.239319 -0.116117 -5.77571e-20)
(0.251103 -0.102559 -9.30016e-20)
(0.218408 -0.135862 7.29962e-20)
(0.233146 -0.122139 1.25927e-19)
(0.194187 -0.154421 -4.81598e-20)
(0.211046 -0.142101 -3.68023e-20)
(0.169029 -0.169657 -1.58198e-19)
(0.186076 -0.160058 -1.03432e-19)
(0.14644 -0.180246 -1.61509e-19)
(0.161318 -0.173828 -1.02137e-19)
(0.140105 -0.182917 -6.08103e-20)
(0.12897 -0.186841 -6.02519e-20)
(0.295013 -0.0258023 -9.97213e-21)
(0.281456 -0.015477 -1.82919e-23)
(0.292097 -0.0371131 -2.24022e-20)
(0.282408 -0.0247893 -1.52767e-20)
(0.287927 -0.0488352 -1.50881e-20)
(0.277353 -0.037244 4.91049e-21)
(0.281108 -0.0617974 1.81017e-20)
(0.26906 -0.0487287 0)
(0.271797 -0.0756674 -4.99374e-20)
(0.261775 -0.0605778 5.73619e-20)
(0.259438 -0.091728 -3.62036e-20)
(0.254334 -0.0754315 -4.26819e-20)
(0.244014 -0.110679 8.73844e-20)
(0.243981 -0.0937485 4.71229e-21)
(0.224854 -0.130758 9.42854e-21)
(0.229956 -0.113548 5.80912e-21)
(0.202334 -0.149552 -9.24852e-20)
(0.211947 -0.133766 2.02677e-20)
(0.178039 -0.165234 -4.63338e-20)
(0.190481 -0.15242 2.17041e-20)
(0.154666 -0.176835 0)
(0.167589 -0.167473 -3.68266e-20)
(0.146058 -0.178343 0)
(0.134912 -0.184897 0)
(0.280994 -0.013504 -6.63697e-21)
(0.236369 0.00538485 1.39517e-21)
(0.265579 -0.0273201 9.29513e-21)
(0.23064 -0.00878671 -1.02405e-20)
(0.256287 -0.0391268 1.81301e-20)
(0.224979 -0.0229273 1.82813e-20)
(0.249378 -0.0500251 3.46114e-20)
(0.218631 -0.0336195 -2.91699e-21)
(0.244004 -0.0630258 5.64615e-20)
(0.215124 -0.0453631 2.86492e-20)
(0.23803 -0.0792357 -5.79525e-21)
(0.213828 -0.0603211 1.9596e-20)
(0.228676 -0.0982977 -6.9854e-20)
(0.211589 -0.0785167 -1.2965e-20)
(0.215447 -0.119147 1.38796e-20)
(0.205873 -0.0990532 -4.1724e-20)
(0.198357 -0.139286 1.14281e-19)
(0.195647 -0.120072 5.3052e-20)
(0.17845 -0.1567 2.18935e-20)
(0.180678 -0.139575 5.92945e-20)
(0.157558 -0.170358 -3.71528e-20)
(0.162571 -0.155745 -1.19859e-20)
(0.137959 -0.180387 2.23711e-20)
(0.143642 -0.168057 -9.52496e-21)
(0.0718496 -0.104667 -1.02086e-19)
(0.094194 -0.116835 1.06131e-18)
(0.0661412 -0.117391 -1.05824e-18)
(0.0911209 -0.13063 -4.24657e-19)
(0.0600601 -0.128792 8.68289e-20)
(0.0875486 -0.142725 -5.99827e-19)
(0.0544292 -0.136948 9.4823e-19)
(0.0836986 -0.151812 5.46782e-19)
(0.0493071 -0.141018 -9.09803e-22)
(0.0792435 -0.157116 3.87905e-19)
(0.0439999 -0.141407 -2.88918e-19)
(0.0733873 -0.158642 -7.9391e-19)
(0.0371307 -0.139014 2.39248e-19)
(0.0661452 -0.156865 8.64538e-20)
(0.0274085 -0.134371 -2.88946e-22)
(0.0581325 -0.15249 3.6718e-19)
(0.0147269 -0.130261 -1.49282e-19)
(0.0452173 -0.1471 -3.74813e-19)
(0.000549589 -0.129469 -5.04503e-20)
(0.0272221 -0.14191 0)
(-0.0096628 -0.130996 2.43879e-20)
(0.0107945 -0.138083 -5.13885e-20)
(-0.00130329 -0.136377 6.33602e-20)
(0.106646 -0.150173 7.3526e-19)
(0.112504 -0.161178 7.06656e-19)
(0.104749 -0.163614 1.3878e-20)
(0.10909 -0.175486 -7.08177e-20)
(0.103014 -0.172857 -1.44115e-19)
(0.10602 -0.18582 -1.33585e-19)
(0.100766 -0.17805 -1.20912e-20)
(0.103326 -0.192129 9.82881e-20)
(0.097011 -0.179715 -4.13698e-19)
(0.100712 -0.194797 2.24663e-19)
(0.090898 -0.177409 -4.16019e-19)
(0.0982994 -0.193957 -3.05565e-19)