/*--------------------------------*- C++ -*----------------------------------*\
| =========                 |                                                 |
| \\      /  F ield         | OpenFOAM: The Open Source CFD Toolbox           |
|  \\    /   O peration     | Version:  v1806                                 |
|   \\  /    A nd           | Web:      www.OpenFOAM.com                      |
|    \\/     M anipulation  |                                                 |
\*---------------------------------------------------------------------------*/
FoamFile
{
    version     2.0;
    format      ascii;
    class       surfaceScalarField;
    location    "1";
    object      phi;
}
// * * * * * * * * * * * * * * * * * * * * * * * * * * * * * * * * * * * * * //

dimensions      [0 3 -1 0 0 0 0];
oriented        oriented;


internalField   nonuniform List<scalar> 
1460
(
-2.42091e-07
-2.29881e-06
-4.98441e-07
-1.45379e-06
-8.45646e-07
-1.03031e-06
-1.05982e-06
-7.81915e-07
-1.17433e-06
-4.38012e-07
-1.22369e-06
-4.3186e-08
-1.23158e-06
3.42836e-07
-1.22181e-06
6.88245e-07
-1.19936e-06
9.8333e-07
-1.14201e-06
1.23147e-06
-1.02285e-06
1.43628e-06
1.59305e-06
-8.09897e-07
-3.53749e-07
-2.45288e-06
-4.40493e-07
-1.36705e-06
-7.12807e-07
-7.57994e-07
-9.16615e-07
-5.78107e-07
-1.019e-06
-3.35624e-07
-1.05244e-06
-9.74671e-09
-1.03836e-06
3.28752e-07
-9.96003e-07
6.45889e-07
-9.33213e-07
9.2054e-07
-8.47524e-07
1.14578e-06
-7.2844e-07
1.31719e-06
1.42651e-06
-5.619e-07
-5.56166e-07
-2.54329e-06
-5.56695e-07
-1.36652e-06
-7.01788e-07
-6.12901e-07
-8.28391e-07
-4.51504e-07
-8.94782e-07
-2.69233e-07
-9.0781e-07
3.28146e-09
-8.76209e-07
2.9715e-07
-8.10606e-07
5.80287e-07
-7.20673e-07
8.30606e-07
-6.10142e-07
1.03525e-06
-4.77772e-07
1.18482e-06
1.26997e-06
-3.21225e-07
-6.24393e-07
-2.5283e-06
-6.82449e-07
-1.30846e-06
-7.18001e-07
-5.77348e-07
-7.63795e-07
-4.05711e-07
-7.96718e-07
-2.3631e-07
-7.95651e-07
2.21426e-09
-7.55859e-07
2.57359e-07
-6.8058e-07
5.05007e-07
-5.77275e-07
7.27302e-07
-4.5239e-07
9.10365e-07
-3.10096e-07
1.04253e-06
-1.53977e-07
1.11385e-06
-5.59254e-07
1.63599e-06
-3.34801e-07
1.54845e-06
-1.48449e-07
1.36666e-06
-1.75413e-08
1.09839e-06
2.59422e-08
7.5198e-07
-7.87205e-09
3.42283e-07
-1.02448e-07
-7.74519e-08
-2.22802e-07
-4.93257e-07
-3.37602e-07
-9.18866e-07
-4.53117e-07
-1.33933e-06
-5.13008e-07
-1.82131e-06
-2.31672e-06
-3.99988e-07
-3.69517e-07
1.44361e-06
-1.82642e-07
1.36158e-06
-1.63465e-08
1.20037e-06
1.12008e-07
9.70039e-07
1.92519e-07
6.7147e-07
2.08074e-07
3.26728e-07
1.72711e-07
-4.20889e-08
1.01444e-07
-4.2199e-07
-5.99113e-09
-8.1143e-07
-1.67922e-07
-1.1774e-06
-3.65962e-07
-1.62327e-06
-2.17619e-06
-5.06489e-07
-1.52199e-07
1.27458e-06
1.17404e-08
1.19764e-06
1.62454e-07
1.04965e-06
2.90931e-07
8.41562e-07
3.80283e-07
5.82118e-07
4.18764e-07
2.88246e-07
4.02575e-07
-2.58993e-08
3.27641e-07
-3.47056e-07
1.82916e-07
-6.66706e-07
-1.47273e-08
-9.79758e-07
-2.80828e-07
-1.35717e-06
-1.81257e-06
-6.44453e-07
6.42809e-09
1.11418e-06
1.59802e-07
1.04426e-06
2.99542e-07
9.09912e-07
4.1659e-07
7.24514e-07
4.99429e-07
4.99279e-07
5.36511e-07
2.51164e-07
5.15716e-07
-5.10461e-09
4.28688e-07
-2.60028e-07
2.77732e-07
-5.1575e-07
1.09683e-07
-8.11708e-07
-1.04534e-07
-1.14295e-06
-6.06841e-07
-1.31026e-06
-2.38811e-07
-2.29839e-06
-4.95055e-07
-1.45065e-06
-8.42416e-07
-1.02439e-06
-1.05589e-06
-7.75862e-07
-1.16987e-06
-4.32969e-07
-1.21912e-06
-3.95732e-08
-1.22712e-06
3.44731e-07
-1.21775e-06
6.88596e-07
-1.19588e-06
9.82137e-07
-1.13944e-06
1.22855e-06
-1.02207e-06
1.43158e-06
1.5867e-06
-8.11829e-07
-3.51402e-07
-2.45348e-06
-4.37362e-07
-1.36469e-06
-7.09662e-07
-7.52088e-07
-9.13146e-07
-5.72377e-07
-1.01515e-06
-3.30962e-07
-1.0483e-06
-6.43024e-09
-1.03431e-06
3.30745e-07
-9.92267e-07
6.46553e-07
-9.29798e-07
9.19668e-07
-8.44564e-07
1.14332e-06
-7.26204e-07
1.31322e-06
1.42132e-06
-5.60822e-07
-5.53949e-07
-2.54398e-06
-5.54359e-07
-1.36428e-06
-6.99272e-07
-6.07175e-07
-8.25522e-07
-4.46128e-07
-8.91484e-07
-2.65e-07
-9.04238e-07
6.32367e-09
-8.72486e-07
2.98994e-07
-8.06981e-07
5.81048e-07
-7.17364e-07
8.30051e-07
-6.0725e-07
1.0332e-06
-4.75414e-07
1.18138e-06
1.2654e-06
-3.19498e-07
-6.23503e-07
-2.52732e-06
-6.81618e-07
-1.30617e-06
-7.16499e-07
-5.72294e-07
-7.61566e-07
-4.01061e-07
-7.93922e-07
-2.32644e-07
-7.9249e-07
4.89228e-09
-7.52518e-07
2.59022e-07
-6.77289e-07
5.05819e-07
-5.74061e-07
7.26823e-07
-4.49524e-07
9.08664e-07
-3.07788e-07
1.03965e-06
-1.52304e-07
1.10992e-06
-5.63689e-07
1.62885e-06
-3.4067e-07
1.54159e-06
-1.5424e-07
1.36119e-06
-2.16641e-08
1.09479e-06
2.41924e-08
7.50143e-07
-7.23744e-09
3.41323e-07
-9.99302e-08
-7.88515e-08
-2.19436e-07
-4.94985e-07
-3.34705e-07
-9.19824e-07
-4.51732e-07
-1.33859e-06
-5.13234e-07
-1.81922e-06
-2.31399e-06
-3.6974e-07
1.43777e-06
-1.83887e-07
1.35574e-06
-1.79005e-08
1.1952e-06
1.11124e-07
9.65769e-07
1.93031e-07
6.68237e-07
2.10203e-07
3.24151e-07
1.7566e-07
-4.43081e-08
1.04049e-07
-4.23375e-07
-4.71535e-09
-8.11059e-07
-1.68335e-07
-1.17497e-06
-3.67296e-07
-1.62025e-06
-2.17316e-06
-1.51134e-07
1.2694e-06
1.22847e-08
1.19232e-06
1.62857e-07
1.04463e-06
2.91551e-07
8.37076e-07
3.81392e-07
5.78395e-07
4.20236e-07
2.85307e-07
4.03777e-07
-2.78486e-08
3.27932e-07
-3.4753e-07
1.82114e-07
-6.65242e-07
-1.61277e-08
-9.76725e-07
-2.83007e-07
-1.35338e-06
-1.80915e-06
7.45199e-09
1.10965e-06
1.60313e-07
1.03946e-06
2.99696e-07
9.05245e-07
4.16422e-07
7.2035e-07
4.99106e-07
4.95712e-07
5.3597e-07
2.48442e-07
5.14767e-07
-6.6458e-09
4.27299e-07
-2.60062e-07
2.76103e-07
-5.14046e-07
1.07984e-07
-8.08606e-07
-1.06699e-07
-1.13869e-06
-1.30611e-06
-5.36413e-07
-1.99189e-06
-6.95093e-07
-1.14978e-06
-6.86834e-07
-5.85608e-07
-6.92041e-07
-4.00504e-07
-7.07883e-07
-2.20468e-07
-7.01854e-07
-3.81471e-09
-6.63843e-07
2.19349e-07
-5.92178e-07
4.33342e-07
-4.91065e-07
6.26188e-07
-3.66286e-07
7.85586e-07
-2.24391e-07
9.00633e-07
9.62163e-07
-7.27064e-08
-4.35373e-07
-1.55651e-06
-5.92114e-07
-9.9304e-07
-6.00783e-07
-5.76939e-07
-6.13537e-07
-3.87749e-07
-6.27313e-07
-2.06692e-07
-6.21286e-07
-9.8415e-09
-5.87729e-07
1.85792e-07
-5.24826e-07
3.70439e-07
-4.34578e-07
5.3594e-07
-3.21056e-07
6.72063e-07
-1.90417e-07
7.69994e-07
8.22279e-07
-5.05328e-08
-3.34171e-07
-1.22234e-06
-4.82265e-07
-8.44946e-07
-5.15257e-07
-5.43947e-07
-5.40598e-07
-3.62409e-07
-5.56792e-07
-1.90498e-07
-5.52381e-07
-1.42523e-08
-5.23175e-07
1.56585e-07
-4.68475e-07
3.15739e-07
-3.89735e-07
4.572e-07
-2.90236e-07
5.72564e-07
-1.75256e-07
6.55014e-07
6.98442e-07
-5.1419e-08
-2.53658e-07
-9.68683e-07
-3.89177e-07
-7.09428e-07
-4.42271e-07
-4.90853e-07
-4.77576e-07
-3.27103e-07
-4.96818e-07
-1.71256e-07
-4.94512e-07
-1.65584e-08
-4.69117e-07
1.3119e-07
-4.20907e-07
2.67529e-07
-3.51429e-07
3.87722e-07
-2.63838e-07
4.84973e-07
-1.62844e-07
5.5402e-07
5.89735e-07
-5.41368e-08
-1.98836e-07
-7.69847e-07
-3.20405e-07
-5.87859e-07
-3.83777e-07
-4.27482e-07
-4.24981e-07
-2.85899e-07
-4.46488e-07
-1.49748e-07
-4.46359e-07
-1.66872e-08
-4.24331e-07
1.09162e-07
-3.81418e-07
2.24616e-07
-3.19261e-07
3.25565e-07
-2.40992e-07
4.06704e-07
-1.50853e-07
4.63882e-07
4.9306e-07
-5.4178e-08
-1.61695e-07
-6.08152e-07
-2.70765e-07
-4.78788e-07
-3.37949e-07
-3.60298e-07
-3.81877e-07
-2.41971e-07
-4.04823e-07
-1.26802e-07
-4.06468e-07
-1.50425e-08
-3.87479e-07
9.01736e-08
-3.48993e-07
1.8613e-07
-2.92841e-07
2.69413e-07
-2.22017e-07
3.3588e-07
-1.40402e-07
3.82267e-07
4.0562e-07
-5.29627e-08
-1.36312e-07
-4.7184e-07
-2.35044e-07
-3.80057e-07
-3.02508e-07
-2.92833e-07
-3.47222e-07
-1.97258e-07
-3.70913e-07
-1.03111e-07
-3.74103e-07
-1.18524e-08
-3.57582e-07
7.36529e-08
-3.22667e-07
1.51215e-07
-2.71358e-07
2.18104e-07
-2.06525e-07
2.71047e-07
-1.31806e-07
3.07548e-07
3.25502e-07
-5.16876e-08
-1.1881e-07
-3.5303e-07
-2.09443e-07
-2.89424e-07
-2.75505e-07
-2.26772e-07
-3.19962e-07
-1.52801e-07
-3.43936e-07
-7.91369e-08
-3.4813e-07
-7.65823e-09
-3.33526e-07
5.90485e-08
-3.01449e-07
1.19138e-07
-2.53924e-07
1.70579e-07
-1.93776e-07
2.109e-07
-1.24455e-07
2.38227e-07
2.51179e-07
-5.01323e-08
-1.06556e-07
-2.46475e-07
-1.90985e-07
-2.04994e-07
-2.55105e-07
-1.62651e-07
-2.98838e-07
-1.09068e-07
-3.22774e-07
-5.52002e-08
-3.2758e-07
-2.85284e-09
-3.14239e-07
4.57072e-08
-2.8417e-07
8.90693e-08
-2.39362e-07
1.25771e-07
-1.82593e-07
1.54131e-07
-1.17308e-07
1.72942e-07
1.81215e-07
-4.73441e-08
-9.73758e-08
-1.49099e-07
-1.7677e-07
-1.256e-07
-2.39035e-07
-1.00387e-07
-2.81915e-07
-6.61875e-08
-3.05501e-07
-3.16147e-08
-3.10392e-07
2.03831e-09
-2.97594e-07
3.29095e-08
-2.68601e-07
6.00763e-08
-2.25394e-07
8.25637e-08
-1.70855e-07
9.95919e-08
-1.0829e-07
1.10376e-07
1.14382e-07
-4.1457e-08
-8.80955e-08
-6.10033e-08
-1.61916e-07
-5.17794e-08
-2.21103e-07
-4.11998e-08
-2.61709e-07
-2.55816e-08
-2.83433e-07
-9.89059e-09
-2.86768e-07
5.37357e-09
-2.72868e-07
1.90086e-08
-2.43329e-07
3.05373e-08
-2.00477e-07
3.97124e-08
-1.47098e-07
4.62127e-08
-8.65308e-08
4.98092e-08
5.02712e-08
-2.24196e-08
-6.10033e-08
-1.12783e-07
-1.53983e-07
-1.79564e-07
-1.89455e-07
-1.84081e-07
-1.65072e-07
-1.34535e-07
-9.48228e-08
-4.861e-08
1.19911e-09
5.14703e-08
7.90156e-08
9.62453e-07
2.21852e-07
9.01427e-07
3.47341e-07
7.84424e-07
4.49656e-07
6.22198e-07
5.2054e-07
4.28395e-07
5.5266e-07
2.19044e-07
5.37419e-07
1.01367e-08
4.70462e-07
-1.93071e-07
3.61888e-07
-4.07177e-07
2.47362e-07
-6.97182e-07
1.48337e-07
-1.04392e-06
-1.16193e-06
8.89225e-08
8.22998e-07
2.19105e-07
7.71244e-07
3.31471e-07
6.72058e-07
4.20371e-07
5.33298e-07
4.81995e-07
3.66771e-07
5.13024e-07
1.88015e-07
5.12284e-07
1.08764e-08
4.79156e-07
-1.59943e-07
4.17049e-07
-3.45069e-07
3.21024e-07
-6.01158e-07
1.70341e-07
-8.9324e-07
-9.91585e-07
7.30241e-08
6.98555e-07
1.88814e-07
6.55454e-07
2.89234e-07
5.71638e-07
3.68435e-07
4.54097e-07
4.23104e-07
3.12101e-07
4.52932e-07
1.58188e-07
4.60052e-07
3.75656e-09
4.46446e-07
-1.46338e-07
4.07129e-07
-3.05752e-07
3.2007e-07
-5.14099e-07
1.68075e-07
-7.41245e-07
-8.23509e-07
5.52747e-08
5.89144e-07
1.57977e-07
5.52752e-07
2.47571e-07
4.82044e-07
3.18631e-07
3.83037e-07
3.67686e-07
2.63047e-07
3.9455e-07
1.31324e-07
4.01223e-07
-2.91668e-09
3.9008e-07
-1.35195e-07
3.5611e-07
-2.71782e-07
2.78605e-07
-4.36594e-07
1.46464e-07
-6.09104e-07
-6.77046e-07
4.24563e-08
4.92509e-07
1.35093e-07
4.60116e-07
2.154e-07
4.01737e-07
2.79366e-07
3.19071e-07
3.24066e-07
2.18347e-07
3.48064e-07
1.07325e-07
3.52428e-07
-7.27996e-09
3.38757e-07
-1.21524e-07
3.04184e-07
-2.37209e-07
2.35779e-07
-3.6819e-07
1.24819e-07
-4.98143e-07
-5.52227e-07
3.51524e-08
4.04394e-07
1.18079e-07
3.7719e-07
1.90746e-07
3.29069e-07
2.49784e-07
2.60033e-07
2.90751e-07
1.7738e-07
3.12648e-07
8.54283e-08
3.15567e-07
-1.0199e-08
3.00245e-07
-1.06201e-07
2.65188e-07
-2.02152e-07
2.02895e-07
-3.05897e-07
1.07504e-07
-4.02752e-07
-4.44722e-07
2.90661e-08
3.2364e-07
1.04743e-07
3.01513e-07
1.72165e-07
2.61647e-07
2.26071e-07
2.06127e-07
2.64231e-07
1.3922e-07
2.84771e-07
6.48883e-08
2.87036e-07
-1.24635e-08
2.71303e-07
-9.04693e-08
2.36673e-07
-1.67521e-07
1.78696e-07
-2.47921e-07
9.45771e-08
-3.18633e-07
-3.50145e-07
2.46776e-08
2.48831e-07
9.53509e-08
2.3084e-07
1.57735e-07
1.99264e-07
2.08025e-07
1.55837e-07
2.43744e-07
1.03501e-07
2.6285e-07
4.57821e-08
2.64744e-07
-1.43572e-08
2.49372e-07
-7.50971e-08
2.1566e-07
-1.3381e-07
1.61165e-07
-1.93425e-07
8.53366e-08
-2.42805e-07
-2.64809e-07
2.29413e-08
1.78545e-07
8.94334e-08
1.64348e-07
1.48021e-07
1.40676e-07
1.95462e-07
1.08396e-07
2.28876e-07
7.00868e-08
2.46934e-07
2.77244e-08
2.48569e-07
-1.59925e-08
2.33308e-07
-5.98356e-08
2.00617e-07
-1.0112e-07
1.48877e-07
-1.41685e-07
7.89035e-08
-1.72832e-07
-1.85905e-07
2.54128e-08
1.11675e-07
8.82052e-08
1.01555e-07
1.44028e-07
8.48531e-08
1.88695e-07
6.37293e-08
2.20346e-07
3.84356e-08
2.36856e-07
1.12144e-08
2.37631e-07
-1.67683e-08
2.22033e-07
-4.4237e-08
1.89861e-07
-6.89475e-08
1.39983e-07
-9.18072e-08
7.4033e-08
-1.06882e-07
-1.11872e-07
4.1043e-08
4.82128e-08
1.00467e-07
4.2131e-08
1.51809e-07
3.35112e-08
1.92494e-07
2.30447e-08
2.20125e-07
1.08038e-08
2.32956e-07
-1.61643e-09
2.30586e-07
-1.43983e-08
2.12388e-07
-2.60386e-08
1.78753e-07
-3.53127e-08
1.29489e-07
-4.25434e-08
6.76039e-08
-4.49963e-08
-4.42682e-08
9.96832e-08
1.41814e-07
1.75325e-07
1.9837e-07
2.09174e-07
2.07557e-07
1.93159e-07
1.67121e-07
1.31808e-07
8.92645e-08
4.42682e-08
-5.36457e-07
-1.99086e-06
-6.95102e-07
-1.14752e-06
-6.8596e-07
-5.81436e-07
-6.90238e-07
-3.96783e-07
-7.05518e-07
-2.17365e-07
-6.99105e-07
-1.52039e-09
-6.60859e-07
2.20775e-07
-5.89201e-07
4.34161e-07
-4.88074e-07
6.25697e-07
-3.63525e-07
7.84114e-07
-2.22132e-07
8.98253e-07
9.58864e-07
-7.10748e-08
-4.35507e-07
-1.55536e-06
-5.92171e-07
-9.90858e-07
-6.00003e-07
-5.73603e-07
-6.12024e-07
-3.84761e-07
-6.25277e-07
-2.04112e-07
-6.18896e-07
-7.90139e-09
-5.8511e-07
1.86988e-07
-5.22116e-07
3.71168e-07
-4.31908e-07
5.35488e-07
-3.18582e-07
6.70789e-07
-1.88321e-07
7.67992e-07
8.19539e-07
-4.89967e-08
-3.34229e-07
-1.22113e-06
-4.82147e-07
-8.4294e-07
-5.14462e-07
-5.41289e-07
-5.39258e-07
-3.59965e-07
-5.55016e-07
-1.88354e-07
-5.50292e-07
-1.26262e-08
-5.20912e-07
1.57608e-07
-4.66067e-07
3.16323e-07
-3.87369e-07
4.5679e-07
-2.88056e-07
5.71476e-07
-1.73389e-07
6.53325e-07
6.96132e-07
-4.99819e-08
-2.53622e-07
-9.67507e-07
-3.88924e-07
-7.07638e-07
-4.41495e-07
-4.88717e-07
-4.76371e-07
-3.25089e-07
-4.95243e-07
-1.69482e-07
-4.92665e-07
-1.52049e-08
-4.67115e-07
1.32059e-07
-4.1875e-07
2.67958e-07
-3.49336e-07
3.87376e-07
-2.61915e-07
4.84055e-07
-1.61183e-07
5.52593e-07
5.87782e-07
-5.28333e-08
-1.98746e-07
-7.68761e-07
-3.20069e-07
-5.86315e-07
-3.83037e-07
-4.2575e-07
-4.23881e-07
-2.84245e-07
-4.4507e-07
-1.48293e-07
-4.44697e-07
-1.55773e-08
-4.22516e-07
1.09877e-07
-3.79465e-07
2.24907e-07
-3.174e-07
3.25312e-07
-2.39296e-07
4.05951e-07
-1.49358e-07
4.62655e-07
4.9145e-07
-5.30262e-08
-1.61572e-07
-6.07189e-07
-2.70406e-07
-4.7748e-07
-3.37245e-07
-3.58911e-07
-3.80862e-07
-2.40628e-07
-4.03531e-07
-1.25625e-07
-4.04963e-07
-1.41446e-08
-3.85833e-07
9.07471e-08
-3.47268e-07
1.86342e-07
-2.91155e-07
2.69199e-07
-2.20458e-07
3.35254e-07
-1.39062e-07
3.81259e-07
4.043e-07
-5.19119e-08
-1.36169e-07
-4.7102e-07
-2.34663e-07
-3.78986e-07
-3.01839e-07
-2.91735e-07
-3.46276e-07
-1.96191e-07
-3.6972e-07
-1.02181e-07
-3.72722e-07
-1.11423e-08
-3.56066e-07
7.40913e-08
-3.21088e-07
1.51364e-07
-2.6982e-07
2.1793e-07
-2.05091e-07
2.70525e-07
-1.30572e-07
3.0674e-07
3.24441e-07
-5.07123e-08
-1.18654e-07
-3.52366e-07
-2.09057e-07
-2.88583e-07
-2.74864e-07
-2.25928e-07
-3.1907e-07
-1.51985e-07
-3.42822e-07
-7.84293e-08
-3.46846e-07
-7.11833e-09
-3.32108e-07
5.93532e-08
-2.99991e-07
1.19247e-07
-2.52505e-07
1.70445e-07
-1.9244e-07
2.1046e-07
-1.23311e-07
2.37612e-07
2.50349e-07
-4.92196e-08
-1.06393e-07
-2.45973e-07
-1.90601e-07
-2.04376e-07
-2.54485e-07
-1.62043e-07
-2.97984e-07
-1.08486e-07
-3.21714e-07
-5.46999e-08
-3.26349e-07
-2.48299e-09
-3.1292e-07
4.5924e-08
-2.82791e-07
8.91181e-08
-2.38001e-07
1.25655e-07
-1.81353e-07
1.53812e-07
-1.16218e-07
1.72476e-07
1.80613e-07
-4.64819e-08
-9.72094e-08
-1.48763e-07
-1.76384e-07
-1.25201e-07
-2.38422e-07
-1.00005e-07
-2.81079e-07
-6.58293e-08
-3.04466e-07
-3.13125e-08
-3.09193e-07
2.24428e-09
-2.96299e-07
3.30295e-08
-2.67284e-07
6.01036e-08
-2.24079e-07
8.24496e-08
-1.69646e-07
9.93793e-08
-1.07241e-07
1.10071e-07
1.13997e-07
-4.06248e-08
-8.79233e-08
-6.084e-08
-1.61526e-07
-5.15988e-08
-2.20494e-07
-4.10372e-08
-2.60886e-07
-2.54372e-08
-2.82422e-07
-9.777e-09
-2.8562e-07
5.44294e-09
-2.71627e-07
1.90367e-08
-2.42045e-07
3.05214e-08
-1.99239e-07
3.96435e-08
-1.45955e-07
4.60957e-08
-8.55443e-08
4.96597e-08
5.01211e-08
-2.16681e-08
-6.084e-08
-1.12439e-07
-1.53476e-07
-1.78913e-07
-1.8869e-07
-1.83247e-07
-1.6421e-07
-1.33689e-07
-9.40456e-08
-4.79499e-08
1.70975e-09
5.18309e-08
8.01182e-08
9.58454e-07
2.22092e-07
8.97488e-07
3.47029e-07
7.80309e-07
4.48866e-07
6.18513e-07
5.19337e-07
4.2524e-07
5.51144e-07
2.16635e-07
5.35746e-07
8.75269e-09
4.68784e-07
-1.931e-07
3.60444e-07
-4.05706e-07
2.46147e-07
-6.9431e-07
1.4764e-07
-1.04019e-06
-1.15847e-06
8.95773e-08
8.1988e-07
2.19434e-07
7.67631e-07
3.31187e-07
6.68556e-07
4.19575e-07
5.30124e-07
4.8076e-07
3.64056e-07
5.11453e-07
1.85943e-07
5.10593e-07
9.61279e-09
4.77565e-07
-1.60073e-07
4.15719e-07
-3.4386e-07
3.19986e-07
-5.98577e-07
1.69818e-07
-8.90017e-07
-9.88648e-07
7.39695e-08
6.95928e-07
1.89254e-07
6.52347e-07
2.89096e-07
5.68713e-07
3.67799e-07
4.51421e-07
4.22034e-07
3.09821e-07
4.51527e-07
1.5645e-07
4.58456e-07
2.68372e-09
4.44844e-07
-1.46461e-07
4.05725e-07
-3.0474e-07
3.19089e-07
-5.11942e-07
1.6762e-07
-7.38548e-07
-8.21028e-07
5.62737e-08
5.86821e-07
1.58249e-07
5.50371e-07
2.47423e-07
4.79539e-07
3.18096e-07
3.80748e-07
3.66769e-07
2.61149e-07
3.93341e-07
1.29878e-07
3.99803e-07
-3.77797e-09
3.88607e-07
-1.35265e-07
3.54797e-07
-2.7093e-07
2.77715e-07
-4.3486e-07
1.46056e-07
-6.06888e-07
-6.74973e-07
4.32508e-08
4.90544e-07
1.35479e-07
4.58143e-07
2.15388e-07
3.9963e-07
2.78932e-07
3.17204e-07
3.23296e-07
2.16785e-07
3.47031e-07
1.06143e-07
3.51218e-07
-7.9648e-09
3.37497e-07
-1.21545e-07
3.03086e-07
-2.36518e-07
2.35018e-07
-3.66792e-07
1.24465e-07
-4.96335e-07
-5.50508e-07
3.57762e-08
4.02856e-07
1.18545e-07
3.75374e-07
1.90735e-07
3.2744e-07
2.49409e-07
2.5853e-07
2.90084e-07
1.76109e-07
3.11743e-07
8.44845e-08
3.14507e-07
-1.07288e-08
2.99178e-07
-1.06216e-07
2.64243e-07
-2.01583e-07
2.02233e-07
-3.04782e-07
1.07191e-07
-4.01294e-07
-4.43316e-07
2.97408e-08
3.22403e-07
1.051e-07
3.00015e-07
1.72117e-07
2.60423e-07
2.25808e-07
2.04839e-07
2.63627e-07
1.3829e-07
2.83957e-07
6.41539e-08
2.86116e-07
-1.28871e-08
2.70348e-07
-9.04491e-08
2.35834e-07
-1.67068e-07
1.78101e-07
-2.4705e-07
9.42894e-08
-3.17482e-07
-3.49027e-07
2.53347e-08
2.47849e-07
9.54773e-08
2.29873e-07
1.57738e-07
1.98163e-07
2.07685e-07
1.54892e-07
2.43213e-07
1.02763e-07
2.62124e-07
4.52423e-08
2.63897e-07
-1.46592e-08
2.48512e-07
-7.50647e-08
2.14907e-07
-1.33463e-07
1.60618e-07
-1.92761e-07
8.50689e-08
-2.41933e-07
-2.63958e-07
2.35778e-08
1.77789e-07
8.9596e-08
1.63855e-07
1.48052e-07
1.39707e-07
1.95161e-07
1.07783e-07
2.2837e-07
6.95541e-08
2.46265e-07
2.73469e-08
2.47794e-07
-1.6188e-08
2.32528e-07
-5.97991e-08
1.99925e-07
-1.0086e-07
1.48371e-07
-1.41207e-07
7.86513e-08
-1.72213e-07
-1.85306e-07
2.59763e-08
1.11188e-07
8.85253e-08
1.01306e-07
1.44016e-07
8.42157e-08
1.88469e-07
6.33303e-08
2.19913e-07
3.81095e-08
2.36229e-07
1.10314e-08
2.36907e-07
-1.68664e-08
2.21301e-07
-4.41929e-08
1.89213e-07
-6.87718e-08
1.39502e-07
-9.14955e-08
7.37938e-08
-1.06505e-07
-1.11513e-07
4.14964e-08
4.80238e-08
1.00829e-07
4.19732e-08
1.51693e-07
3.33516e-08
1.92251e-07
2.27723e-08
2.19662e-07
1.06985e-08
2.32362e-07
-1.66899e-09
2.29899e-07
-1.44026e-08
2.11698e-07
-2.59924e-08
1.78137e-07
-3.52109e-08
1.2905e-07
-4.24077e-08
6.7386e-08
-4.48411e-08
-4.41266e-08
9.98546e-08
1.41828e-07
1.75179e-07
1.97952e-07
2.0865e-07
2.06981e-07
1.92579e-07
1.66586e-07
1.31375e-07
8.89676e-08
4.41266e-08
)
;

boundaryField
{
    rotor
    {
        type            calculated;
        value           nonuniform 0();
    }
    stator
    {
        type            calculated;
        value           nonuniform List<scalar> 
96
(
-6.56205e-35
0
2.40741e-35
0
0
6.62038e-35
0
3.00927e-36
3.00927e-36
0
-5.97629e-36
-1.04601e-37
-4.12542e-35
0
-3.16395e-35
3.00927e-36
-3.00927e-36
-1.2206e-35
1.80556e-35
-6.18751e-36
4.79793e-35
0
4.81482e-35
2.39051e-35
2.40741e-35
3.59422e-35
1.20371e-35
3.61112e-35
-6.01853e-36
0
0
0
0
0
0
4.43235e-35
0
0
-1.05324e-35
-1.58912e-36
0
-3.00927e-36
0
-1.20371e-35
-1.80556e-35
0
-6.01853e-35
0
0
-6.01853e-36
0
0
6.01853e-36
-3.00927e-36
0
6.01853e-36
0
0
0
0
0
6.01853e-36
3.00927e-36
6.01853e-36
0
6.01853e-36
-6.01853e-36
0
0
0
0
0
0
-6.01853e-36
-3.00927e-36
-6.01853e-36
0
0
6.01853e-36
0
0
0
0
1.20371e-35
0
6.01853e-36
3.00927e-36
6.01853e-36
0
0
-6.01853e-36
0
0
0
0
-1.20371e-35
)
;
    }
    AMI1
    {
        type            cyclicAMI;
        value           nonuniform 0();
    }
    AMI2
    {
        type            cyclicAMI;
        value           nonuniform List<scalar> 
48
(
2.13813e-06
1.71014e-06
1.37751e-06
9.96087e-07
5.52525e-07
9.25459e-08
-3.34949e-07
-6.98016e-07
-1.00578e-06
-1.28882e-06
-1.55543e-06
-1.80601e-06
-1.88663e-06
-1.7729e-06
-1.55301e-06
-1.2293e-06
-7.95464e-07
-3.08469e-07
1.72028e-07
6.13612e-07
1.03367e-06
1.45485e-06
1.8812e-06
2.2037e-06
2.13722e-06
1.7069e-06
1.37175e-06
9.89335e-07
5.46946e-07
8.88244e-08
-3.36727e-07
-6.97967e-07
-1.004e-06
-1.285e-06
-1.54894e-06
-1.79694e-06
-1.87699e-06
-1.76461e-06
-1.54762e-06
-1.22737e-06
-7.96e-07
-3.09893e-07
1.71544e-07
6.14491e-07
1.03509e-06
1.45561e-06
1.88072e-06
2.20285e-06
)
;
    }
    front
    {
        type            empty;
        value           nonuniform 0();
    }
    back
    {
        type            empty;
        value           nonuniform 0();
    }
    procBoundary0to1
    {
        type            processor;
        value           nonuniform List<scalar> 8(4.02755e-07 5.07817e-07 6.46577e-07 6.09401e-07 -4.02097e-07 -5.08127e-07 -6.47016e-07 -6.09739e-07);
    }
}


// ************************************************************************* //
